[Molden Format]
[Atoms] AU
  N     1    7     0.0972132200   -0.2376293800    1.1274469600        
  C     2    6     0.1268252400   -0.0485622000   -1.2915243900        
  H     3    1     0.0040988200    1.3143352800    2.2662795200        
  H     4    1     0.1657498300   -1.9478586600    2.0132356500        
  H     5    1     0.0512493900    1.8042583100   -2.1606211200        
  H     6    1     0.2269902100   -1.7440440500   -2.4357691300        
[5D]
[7F]
[GTO]
  1  0
   s     6 1.00
  0.417351D+04  0.183480D-02
  0.627458D+03  0.139950D-01
  0.142902D+03  0.685870D-01
  0.402343D+02  0.232241D+00
  0.128202D+02  0.469070D+00
  0.439044D+01  0.360455D+00
   s     3 1.00
  0.116264D+02 -0.114961D+00
  0.271628D+01 -0.169118D+00
  0.772218D+00  0.114585D+01
   s     1 1.00
  0.212031D+00  0.100000D+01
   p     3 1.00
  0.116264D+02  0.675800D-01
  0.271628D+01  0.323907D+00
  0.772218D+00  0.740895D+00
   p     1 1.00
  0.212031D+00  0.100000D+01
   d     1 1.00
  0.800000D+00  0.100000D+01
  
  2  0
   s     6 1.00
  0.304752D+04  0.183470D-02
  0.457370D+03  0.140373D-01
  0.103949D+03  0.688426D-01
  0.292102D+02  0.232184D+00
  0.928666D+01  0.467941D+00
  0.316393D+01  0.362312D+00
   s     3 1.00
  0.786827D+01 -0.119332D+00
  0.188129D+01 -0.160854D+00
  0.544249D+00  0.114346D+01
   s     1 1.00
  0.168714D+00  0.100000D+01
   p     3 1.00
  0.786827D+01  0.689991D-01
  0.188129D+01  0.316424D+00
  0.544249D+00  0.744308D+00
   p     1 1.00
  0.168714D+00  0.100000D+01
   d     1 1.00
  0.800000D+00  0.100000D+01
  
  3  0
   s     3 1.00
  0.187311D+02  0.334946D-01
  0.282539D+01  0.234727D+00
  0.640122D+00  0.813757D+00
   s     1 1.00
  0.161278D+00  0.100000D+01
  
  4  0
   s     3 1.00
  0.187311D+02  0.334946D-01
  0.282539D+01  0.234727D+00
  0.640122D+00  0.813757D+00
   s     1 1.00
  0.161278D+00  0.100000D+01
  
  5  0
   s     3 1.00
  0.187311D+02  0.334946D-01
  0.282539D+01  0.234727D+00
  0.640122D+00  0.813757D+00
   s     1 1.00
  0.161278D+00  0.100000D+01
  
  6  0
   s     3 1.00
  0.187311D+02  0.334946D-01
  0.282539D+01  0.234727D+00
  0.640122D+00  0.813757D+00
   s     1 1.00
  0.161278D+00  0.100000D+01
  
[MO]
 Sym= __1_A__
 Ene=  0.000000000000000E+000
 Spin= Alpha
 Occup=    2.00000000000000     
                     1  0.995953143102503     
                     2  2.394583838438204E-002
                     3 -1.248135206073282E-002
                     4  1.051860454675484E-005
                     5  6.634911372734166E-005
                     6 -8.489931783800264E-004
                     7 -1.868243308683023E-005
                     8 -1.182089545735918E-004
                     9  1.513125345217466E-003
                    10  3.339032855929510E-004
                    11 -7.583678836739481E-006
                    12 -4.341346810801496E-005
                    13 -2.653904176325494E-005
                    14 -1.879962475725651E-006
                    15  9.641823244733144E-005
                    16 -6.758930276892442E-004
                    17  4.730480992390698E-003
                    18  6.236710897239749E-006
                    19  3.974467582429871E-005
                    20 -5.084370646803685E-004
                    21 -2.761917129185024E-005
                    22 -1.765780695776795E-004
                    23  2.258563691485153E-003
                    24 -6.966839423467515E-004
                    25  1.391297501765233E-005
                    26  9.818573688252326E-005
                    27 -4.251527418943922E-005
                    28 -5.679422813578244E-006
                    29 -1.556922361377956E-005
                    30  1.777588439369963E-003
                    31 -1.553188238679243E-005
                    32  1.777623102662733E-003
                    33 -2.205388579660520E-004
                    34 -1.248111053028103E-004
                    35 -2.205519666614625E-004
                    36 -1.248719996298171E-004
 Sym= __2_A__
 Ene=  0.000000000000000E+000
 Spin= Alpha
 Occup=    2.00000000000000     
                     1 -3.281137557643557E-004
                     2 -1.463854316698748E-004
                     3 -1.870636238172327E-004
                     4 -5.408464708695412E-006
                     5 -3.463534479006005E-005
                     6  4.430876370612524E-004
                     7 -1.088986016687774E-005
                     8 -6.941137894448555E-005
                     9  8.889096943265868E-004
                    10 -6.950148790253225E-004
                    11  1.687311186446134E-005
                    12  8.623130169905107E-005
                    13  1.089376512753593E-004
                    14  9.174436951327526E-006
                    15  0.996084531615189     
                    16  2.405894153577244E-002
                    17 -9.579136000496917E-003
                    18 -1.701536539614513E-005
                    19 -1.086063039627271E-004
                    20  1.389415785579179E-003
                    21 -1.141489001321436E-005
                    22 -7.321199126876382E-005
                    23  9.364522687331526E-004
                    24  8.806672072046872E-004
                    25 -2.630121042016733E-005
                    26 -9.002022040820644E-005
                    27 -3.867572108617036E-004
                    28 -3.601539683921973E-005
                    29 -4.103234192996002E-006
                    30  6.285590544248403E-005
                    31 -4.070252511865956E-006
                    32  6.291294555597672E-005
                    33 -4.052209020297183E-004
                    34  2.577042994184891E-003
                    35 -4.052226582196384E-004
                    36  2.577014550299093E-003
 Sym= __3_A__
 Ene=  0.000000000000000E+000
 Spin= Alpha
 Occup=    2.00000000000000     
                     1 -0.191716455640964     
                     2  0.403264885402040     
                     3  0.407752955708394     
                     4  1.005935113875548E-003
                     5  6.381491839676508E-003
                     6 -8.165938214991744E-002
                     7  3.422332185111828E-004
                     8  2.157676295607183E-003
                     9 -2.761681599515238E-002
                    10  1.182570805400792E-002
                    11 -5.849364239081529E-004
                    12 -3.009643434859340E-004
                    13 -1.691454655676010E-002
                    14 -1.633803606078717E-003
                    15 -0.110055819459706     
                    16  0.223755223777621     
                    17  6.682812245294187E-002
                    18 -1.835044599717932E-003
                    19 -1.172362602796644E-002
                    20  0.149989559503576     
                    21  1.939835462210752E-004
                    22  1.236454438185392E-003
                    23 -1.581972859954821E-002
                    24  2.423293842612597E-002
                    25 -6.412681476326350E-004
                    26 -2.798289484698590E-003
                    27 -6.488917278688996E-003
                    28 -5.837598345527939E-004
                    29  9.454654213840377E-002
                    30 -1.127359728024734E-002
                    31  9.454768512385932E-002
                    32 -1.127397323558186E-002
                    33  3.745020425856663E-002
                    34 -1.265585153396252E-003
                    35  3.745081356050375E-002
                    36 -1.265294760060108E-003
 Sym= __4_A__
 Ene=  0.000000000000000E+000
 Spin= Alpha
 Occup=    2.00000000000000     
                     1 -7.869516444786882E-002
                     2  0.166936914067418     
                     3  0.264365986404017     
                     4 -3.533521757959891E-003
                     5 -2.264098677339857E-002
                     6  0.289696004419757     
                     7 -1.540700766436225E-003
                     8 -9.884420787450728E-003
                     9  0.126482107134267     
                    10 -1.255311257985040E-002
                    11 -7.804751566865772E-005
                    12  3.059748413769937E-003
                    13 -1.743014868144873E-002
                    14 -1.737390807753633E-003
                    15  0.161648768419033     
                    16 -0.341658850929175     
                    17 -0.302260992609793     
                    18 -5.200995469584899E-004
                    19 -3.348166615303909E-003
                    20  4.284816624177715E-002
                    21 -3.592533245222856E-004
                    22 -2.297832011316010E-003
                    23  2.939926236082504E-002
                    24 -1.990976369328649E-003
                    25  4.682608781329794E-004
                    26 -1.391263729155078E-003
                    27  2.147971367103682E-002
                    28  2.101918080085738E-003
                    29  0.127393574080022     
                    30  1.119131366207636E-002
                    31  0.127390080139200     
                    32  1.119136979571665E-002
                    33 -0.134295145007644     
                    34 -2.292928992721448E-002
                    35 -0.134294971238369     
                    36 -2.292917889128913E-002
 Sym= __5_A__
 Ene=  0.000000000000000E+000
 Spin= Alpha
 Occup=    2.00000000000000     
                     1 -3.648383516959296E-007
                     2  1.108147574131009E-006
                     3  8.898280363676380E-007
                     4 -2.373431228444675E-002
                     5  0.478922025875151     
                     6  3.714814102207662E-002
                     7 -1.557116073570113E-002
                     8  0.314195535776861     
                     9  2.437161107725874E-002
                    10  2.677343549378417E-003
                    11 -1.005834179950731E-003
                    12  1.980443242686166E-002
                    13  1.569610542028525E-003
                    14 -1.618582093742030E-004
                    15 -1.985862782484575E-006
                    16  4.614592325407608E-006
                    17  6.898896224718789E-006
                    18 -8.374600048610922E-003
                    19  0.169012927159128     
                    20  1.310154691444535E-002
                    21 -1.021453935588399E-003
                    22  2.060818939935110E-002
                    23  1.596506794921723E-003
                    24  1.689351983032268E-003
                    25 -6.355544676580070E-004
                    26  1.250220603725295E-002
                    27  9.905739953169263E-004
                    28 -1.053215513630741E-004
                    29  0.208055282932504     
                    30  3.654973000997237E-002
                    31 -0.208055362860361     
                    32 -3.655069144853831E-002
                    33  5.689159840599289E-002
                    34  2.272965266094356E-002
                    35 -5.688584968929961E-002
                    36 -2.272851258895109E-002
 Sym= __6_A__
 Ene=  0.000000000000000E+000
 Spin= Alpha
 Occup=    2.00000000000000     
                     1  1.061791328322302E-002
                     2 -2.598227280734308E-002
                     3 -9.119297033793950E-003
                     4 -4.806956501938462E-003
                     5 -3.082754777576314E-002
                     6  0.394313152459200     
                     7 -2.595722772652496E-003
                     8 -1.666791077181556E-002
                     9  0.213185285447804     
                    10 -1.273132823435050E-002
                    11  2.631619070865586E-005
                    12  2.690547862073994E-003
                    13 -1.235402573023555E-002
                    14 -1.239744446311145E-003
                    15 -4.033241706934460E-002
                    16  7.670834987670885E-002
                    17  0.213716050288182     
                    18  5.184468331891398E-003
                    19  3.309141256399432E-002
                    20 -0.423421478090521     
                    21  1.182484799020853E-003
                    22  7.557175098517444E-003
                    23 -9.669507879460267E-002
                    24 -2.922845396507148E-002
                    25  1.997765082738912E-004
                    26  5.620932337604546E-003
                    27 -2.119268307081932E-002
                    28 -2.141629724797335E-003
                    29  0.104484077699549     
                    30  3.174867619192973E-002
                    31  0.104487944961096     
                    32  3.174999389965227E-002
                    33  0.153229980870477     
                    34  6.840449738908176E-002
                    35  0.153229554868813     
                    36  6.840484934285154E-002
 Sym= __7_A__
 Ene=  0.000000000000000E+000
 Spin= Alpha
 Occup=    1.66575124806127     
                     1  4.178313394958493E-007
                     2 -9.359767654239814E-007
                     3 -3.502896471894187E-006
                     4 -8.216737999153748E-003
                     5  0.165524046850438     
                     6  1.283813556048666E-002
                     7 -8.394298687346324E-003
                     8  0.169213529446477     
                     9  1.312503742882627E-002
                    10  3.755689095474685E-003
                    11 -1.410803774707473E-003
                    12  2.778565250382063E-002
                    13  2.201991887471188E-003
                    14 -2.317339014119371E-004
                    15 -1.945534632528706E-007
                    16  3.413728250936869E-007
                    17  2.301185674656410E-006
                    18  2.264310538029828E-002
                    19 -0.457289485303867     
                    20 -3.546294211170359E-002
                    21  1.380986594706513E-002
                    22 -0.278858106956954     
                    23 -2.162360623549629E-002
                    24  4.985215387447290E-003
                    25 -1.874609873198017E-003
                    26  3.689412971277968E-002
                    27  2.923026567247572E-003
                    28 -3.095142623529496E-004
                    29  9.823571968841013E-002
                    30  4.550509894183031E-002
                    31 -9.823684911241640E-002
                    32 -4.550608148893174E-002
                    33 -0.241766274853748     
                    34 -9.679653059888585E-002
                    35  0.241768645181823     
                    36  9.679859385352595E-002
 Sym= __8_A__
 Ene=  0.000000000000000E+000
 Spin= Alpha
 Occup=    1.63269252535070     
                     1  5.959877414717414E-006
                     2 -1.568971351441412E-005
                     3 -1.996503645551519E-005
                     4  0.575756756461145     
                     5  2.782408791408975E-002
                     6  9.199061948825098E-003
                     7  0.451953707307073     
                     8  2.184216662907314E-002
                     9  7.223261507959079E-003
                    10 -5.117318376335951E-004
                    11 -1.842325014252346E-002
                    12 -8.660566652843697E-004
                    13  1.580786477534723E-004
                    14  1.451048425728346E-003
                    15 -1.873135960860311E-006
                    16  4.407259205483790E-006
                    17 -1.473418317268312E-006
                    18  0.201100907844669     
                    19  9.699185314924716E-003
                    20  3.232182384671964E-003
                    21  6.240653655406384E-002
                    22  3.004882468412636E-003
                    23  1.001816647959396E-003
                    24  9.503644707062413E-004
                    25  3.421335859152983E-002
                    26  1.611407271786442E-003
                    27 -2.894935004021676E-004
                    28 -2.695010405835706E-003
                    29  7.724741521323183E-006
                    30  2.745880851870900E-006
                    31 -4.914989140307261E-007
                    32 -6.067172180533747E-007
                    33 -1.000653012480282E-005
                    34 -5.233925345223686E-006
                    35  4.366490943288409E-006
                    36  2.812007847028975E-006
 Sym= __9_A__
 Ene=  0.000000000000000E+000
 Spin= Alpha
 Occup=   0.701556226588028     
                     1 -2.635659082074674E-006
                     2  6.447004157655397E-006
                     3  1.832846638877208E-005
                     4 -0.264958461370110     
                     5 -1.279912401477570E-002
                     6 -4.235238547178516E-003
                     7 -0.412325646613128     
                     8 -1.991756095470553E-002
                     9 -6.595307644143588E-003
                    10 -5.820062380017745E-004
                    11 -2.099423941477648E-002
                    12 -9.867293983445615E-004
                    13  1.770265208568064E-004
                    14  1.653612157058182E-003
                    15 -1.251166176620293E-006
                    16  6.255871130026392E-007
                    17  1.298179582455476E-005
                    18  0.593798748216940     
                    19  2.867240984345397E-002
                    20  9.499501149873461E-003
                    21  0.606347990171633     
                    22  2.927614453851166E-002
                    23  9.704075994652695E-003
                    24 -5.863253351053222E-004
                    25 -2.113084127211409E-002
                    26 -9.948598226800758E-004
                    27  1.790827278756356E-004
                    28  1.664231411774264E-003
                    29 -3.846004574410204E-006
                    30 -3.057376902159617E-006
                    31 -9.794354935253268E-006
                    32 -1.056771218211705E-005
                    33 -1.583731954752423E-006
                    34  7.834313433330960E-007
                    35 -4.504415718528357E-006
                    36 -8.197687823850618E-006
