[Molden Format]
[Atoms] AU
  N     1    7     0.0972132200   -0.2376293800    1.1274469600        
  C     2    6     0.1268252400   -0.0485622000   -1.2915243900        
  H     3    1     0.0040988200    1.3143352800    2.2662795200        
  H     4    1     0.1657498300   -1.9478586600    2.0132356500        
  H     5    1     0.0512493900    1.8042583100   -2.1606211200        
  H     6    1     0.2269902100   -1.7440440500   -2.4357691300        
[5D]
[7F]
[GTO]
  1  0
   s     6 1.00
  0.417351D+04  0.183480D-02
  0.627458D+03  0.139950D-01
  0.142902D+03  0.685870D-01
  0.402343D+02  0.232241D+00
  0.128202D+02  0.469070D+00
  0.439044D+01  0.360455D+00
   s     3 1.00
  0.116264D+02 -0.114961D+00
  0.271628D+01 -0.169118D+00
  0.772218D+00  0.114585D+01
   s     1 1.00
  0.212031D+00  0.100000D+01
   p     3 1.00
  0.116264D+02  0.675800D-01
  0.271628D+01  0.323907D+00
  0.772218D+00  0.740895D+00
   p     1 1.00
  0.212031D+00  0.100000D+01
   d     1 1.00
  0.800000D+00  0.100000D+01
  
  2  0
   s     6 1.00
  0.304752D+04  0.183470D-02
  0.457370D+03  0.140373D-01
  0.103949D+03  0.688426D-01
  0.292102D+02  0.232184D+00
  0.928666D+01  0.467941D+00
  0.316393D+01  0.362312D+00
   s     3 1.00
  0.786827D+01 -0.119332D+00
  0.188129D+01 -0.160854D+00
  0.544249D+00  0.114346D+01
   s     1 1.00
  0.168714D+00  0.100000D+01
   p     3 1.00
  0.786827D+01  0.689991D-01
  0.188129D+01  0.316424D+00
  0.544249D+00  0.744308D+00
   p     1 1.00
  0.168714D+00  0.100000D+01
   d     1 1.00
  0.800000D+00  0.100000D+01
  
  3  0
   s     3 1.00
  0.187311D+02  0.334946D-01
  0.282539D+01  0.234727D+00
  0.640122D+00  0.813757D+00
   s     1 1.00
  0.161278D+00  0.100000D+01
  
  4  0
   s     3 1.00
  0.187311D+02  0.334946D-01
  0.282539D+01  0.234727D+00
  0.640122D+00  0.813757D+00
   s     1 1.00
  0.161278D+00  0.100000D+01
  
  5  0
   s     3 1.00
  0.187311D+02  0.334946D-01
  0.282539D+01  0.234727D+00
  0.640122D+00  0.813757D+00
   s     1 1.00
  0.161278D+00  0.100000D+01
  
  6  0
   s     3 1.00
  0.187311D+02  0.334946D-01
  0.282539D+01  0.234727D+00
  0.640122D+00  0.813757D+00
   s     1 1.00
  0.161278D+00  0.100000D+01
  
[MO]
 Sym= __1_A__
 Ene=   1.00000000000000     
 Spin= Alpha
 Occup=    1.00000000000000     
                     1  0.995953143125570     
                     2  2.394583833551307E-002
                     3 -1.248135210660568E-002
                     4  1.051860386093386E-005
                     5  6.634910933745139E-005
                     6 -8.489931222283746E-004
                     7 -1.868243342579897E-005
                     8 -1.182089567455182E-004
                     9  1.513125372996907E-003
                    10  3.339032826018578E-004
                    11 -7.583678764087140E-006
                    12 -4.341346773661763E-005
                    13 -2.653904129862378E-005
                    14 -1.879962436641684E-006
                    15  9.641823970173470E-005
                    16 -6.758930535032184E-004
                    17  4.730481000829276E-003
                    18  6.236711648768040E-006
                    19  3.974468062177454E-005
                    20 -5.084371260657233E-004
                    21 -2.761917119966446E-005
                    22 -1.765780689881818E-004
                    23  2.258563683942092E-003
                    24 -6.966839483747733E-004
                    25  1.391297512544582E-005
                    26  9.818573778118503E-005
                    27 -4.251527519310990E-005
                    28 -5.679422925079952E-006
                    29 -1.556922199227996E-005
                    30  1.777588444240969E-003
                    31 -1.553188076475222E-005
                    32  1.777623107533983E-003
                    33 -2.205388491490922E-004
                    34 -1.248110985006318E-004
                    35 -2.205519578445238E-004
                    36 -1.248719928275977E-004
 Sym= __2_A__
 Ene=   2.00000000000000     
 Spin= Alpha
 Occup=    1.00000000000000     
                     1 -3.281137641928069E-004
                     2 -1.463854027857257E-004
                     3 -1.870636000399925E-004
                     4 -5.408463792474289E-006
                     5 -3.463533892108577E-005
                     6  4.430875619741671E-004
                     7 -1.088985969670208E-005
                     8 -6.941137592929841E-005
                     9  8.889096557507479E-004
                    10 -6.950148758473976E-004
                    11  1.687311182005074E-005
                    12  8.623130117585716E-005
                    13  1.089376524417595E-004
                    14  9.174437072673376E-006
                    15  0.996084531609135     
                    16  2.405894154925133E-002
                    17 -9.579136020742965E-003
                    18 -1.701536632180775E-005
                    19 -1.086063098715131E-004
                    20  1.389415861179106E-003
                    21 -1.141489017362337E-005
                    22 -7.321199229416826E-005
                    23  9.364522818529179E-004
                    24  8.806672135589689E-004
                    25 -2.630121051026592E-005
                    26 -9.002022144768759E-005
                    27 -3.867572086130526E-004
                    28 -3.601539660492146E-005
                    29 -4.103247034689873E-006
                    30  6.285589939244627E-005
                    31 -4.070265353151339E-006
                    32  6.291293950585169E-005
                    33 -4.052209195430481E-004
                    34  2.577042984065835E-003
                    35 -4.052226757326348E-004
                    36  2.577014540180091E-003
 Sym= __3_A__
 Ene=   3.00000000000000     
 Spin= Alpha
 Occup=    1.00000000000000     
                     1 -0.191716455733213     
                     2  0.403264885847761     
                     3  0.407752956510214     
                     4  1.005935087417235E-003
                     5  6.381491670222910E-003
                     6 -8.165937998054140E-002
                     7  3.422332053775225E-004
                     8  2.157676211407820E-003
                     9 -2.761681491699290E-002
                    10  1.182570797397771E-002
                    11 -5.849364240723978E-004
                    12 -3.009643252788248E-004
                    13 -1.691454665104611E-002
                    14 -1.633803615503318E-003
                    15 -0.110055819151491     
                    16  0.223755222944611     
                    17  6.682812218395529E-002
                    18 -1.835044584824172E-003
                    19 -1.172362593293443E-002
                    20  0.149989558288179     
                    21  1.939835488576407E-004
                    22  1.236454455036669E-003
                    23 -1.581972881509940E-002
                    24  2.423293832650849E-002
                    25 -6.412681455177596E-004
                    26 -2.798289471134175E-003
                    27 -6.488917278609284E-003
                    28 -5.837598347615544E-004
                    29  9.454654287274616E-002
                    30 -1.127359714355097E-002
                    31  9.454768585809491E-002
                    32 -1.127397309890012E-002
                    33  3.745020432432913E-002
                    34 -1.265585007670122E-003
                    35  3.745081362623588E-002
                    36 -1.265294614344327E-003
 Sym= __4_A__
 Ene=   4.00000000000000     
 Spin= Alpha
 Occup=    1.00000000000000     
                     1 -7.869516391682342E-002
                     2  0.166936912929902     
                     3  0.264365985166922     
                     4 -3.533521736581439E-003
                     5 -2.264098663600797E-002
                     6  0.289696002663182     
                     7 -1.540700754259299E-003
                     8 -9.884420709088284E-003
                     9  0.126482106132502     
                    10 -1.255311255209267E-002
                    11 -7.804751396077787E-005
                    12  3.059748400982440E-003
                    13 -1.743014856509521E-002
                    14 -1.737390796277728E-003
                    15  0.161648768998379     
                    16 -0.341658852024796     
                    17 -0.302260993911992     
                    18 -5.200995676586618E-004
                    19 -3.348166747370331E-003
                    20  4.284816793193499E-002
                    21 -3.592533311718523E-004
                    22 -2.297832053799631E-003
                    23  2.939926290443489E-002
                    24 -1.990976296326618E-003
                    25  4.682608791308624E-004
                    26 -1.391263749052658E-003
                    27  2.147971379968838E-002
                    28  2.101918092860088E-003
                    29  0.127393573248753     
                    30  1.119131353540831E-002
                    31  0.127390079307863     
                    32  1.119136966903508E-002
                    33 -0.134295145908098     
                    34 -2.292929027249196E-002
                    35 -0.134294972138835     
                    36 -2.292917923657427E-002
 Sym= __5_A__
 Ene=   5.00000000000000     
 Spin= Alpha
 Occup=    1.00000000000000     
                     1 -3.648382761960342E-007
                     2  1.108147411381014E-006
                     3  8.898278876160103E-007
                     4 -2.373431228445399E-002
                     5  0.478922025875105     
                     6  3.714814102267007E-002
                     7 -1.557116073570503E-002
                     8  0.314195535776836     
                     9  2.437161107757858E-002
                    10  2.677343549357216E-003
                    11 -1.005834179950530E-003
                    12  1.980443242686553E-002
                    13  1.569610542015902E-003
                    14 -1.618582093754875E-004
                    15 -1.985862831363956E-006
                    16  4.614592422057921E-006
                    17  6.898896567590885E-006
                    18 -8.374600048602448E-003
                    19  0.169012927159182     
                    20  1.310154691375329E-002
                    21 -1.021453935586599E-003
                    22  2.060818939936260E-002
                    23  1.596506794774554E-003
                    24  1.689351982981432E-003
                    25 -6.355544676575856E-004
                    26  1.250220603726244E-002
                    27  9.905739952838148E-004
                    28 -1.053215513664315E-004
                    29  0.208055282932625     
                    30  3.654973001002269E-002
                    31 -0.208055362860240     
                    32 -3.655069144848799E-002
                    33  5.689159840623247E-002
                    34  2.272965266105115E-002
                    35 -5.688584968906003E-002
                    36 -2.272851258884350E-002
 Sym= __6_A__
 Ene=   6.00000000000000     
 Spin= Alpha
 Occup=    1.00000000000000     
                     1  1.061791338946674E-002
                     2 -2.598227324319162E-002
                     3 -9.119296982624614E-003
                     4 -4.806956523157075E-003
                     5 -3.082754791248311E-002
                     6  0.394313154199141     
                     7 -2.595722781587923E-003
                     8 -1.666791082965438E-002
                     9  0.213185286181744     
                    10 -1.273132833631346E-002
                    11  2.631619218019606E-005
                    12  2.690547878647162E-003
                    13 -1.235402576529774E-002
                    14 -1.239744449972331E-003
                    15 -4.033241573789179E-002
                    16  7.670834742221395E-002
                    17  0.213716048529484     
                    18  5.184468335096177E-003
                    19  3.309141258399846E-002
                    20 -0.423421478349717     
                    21  1.182484796570270E-003
                    22  7.557175082815268E-003
                    23 -9.669507859410943E-002
                    24 -2.922845405230358E-002
                    25  1.997765127054994E-004
                    26  5.620932339378976E-003
                    27 -2.119268294049028E-002
                    28 -2.141629712206431E-003
                    29  0.104484078048343     
                    30  3.174867628480047E-002
                    31  0.104487945310506     
                    32  3.174999399263645E-002
                    33  0.153229980065098     
                    34  6.840449727639823E-002
                    35  0.153229554063607     
                    36  6.840484923023728E-002
 Sym= __7_A__
 Ene=   7.00000000000000     
 Spin= Alpha
 Occup=    1.00000000000000     
                     1  4.178313395324767E-007
                     2 -9.359767655217838E-007
                     3 -3.502896471990240E-006
                     4 -8.216737995644341E-003
                     5  0.165524046850607     
                     6  1.283813556054272E-002
                     7 -8.394298685164716E-003
                     8  0.169213529446582     
                     9  1.312503742886112E-002
                    10  3.755689095469271E-003
                    11 -1.410803774902439E-003
                    12  2.778565250381146E-002
                    13  2.201991887472852E-003
                    14 -2.317339013965810E-004
                    15 -1.945534632702154E-007
                    16  3.413728251279944E-007
                    17  2.301185674681941E-006
                    18  2.264310538344927E-002
                    19 -0.457289485303715     
                    20 -3.546294211165307E-002
                    21  1.380986594922691E-002
                    22 -0.278858106956849     
                    23 -2.162360623546167E-002
                    24  4.985215387452667E-003
                    25 -1.874609873004584E-003
                    26  3.689412971278879E-002
                    27  2.923026567245936E-003
                    28 -3.095142623681871E-004
                    29  9.823571968841018E-002
                    30  4.550509894183032E-002
                    31 -9.823684911241642E-002
                    32 -4.550608148893177E-002
                    33 -0.241766274853748     
                    34 -9.679653059888589E-002
                    35  0.241768645181823     
                    36  9.679859385352593E-002
 Sym= __8_A__
 Ene=   8.00000000000000     
 Spin= Alpha
 Occup=    1.00000000000000     
                     1  5.959877407028411E-006
                     2 -1.568971349560692E-005
                     3 -1.996503640204118E-005
                     4  0.575756755688553     
                     5  2.782408787554329E-002
                     6  9.199061936379779E-003
                     7  0.451953706104741     
                     8  2.184216656974116E-002
                     9  7.223261488629381E-003
                    10 -5.117318393585392E-004
                    11 -1.842325020373491E-002
                    12 -8.660566683670271E-004
                    13  1.580786482534398E-004
                    14  1.451048430552200E-003
                    15 -1.873135964507433E-006
                    16  4.407259207305560E-006
                    17 -1.473418279428743E-006
                    18  0.201100909576094     
                    19  9.699185401914716E-003
                    20  3.232182412635651E-003
                    21  6.240653832214961E-002
                    22  3.004882555845282E-003
                    23  1.001816676417430E-003
                    24  9.503644689596206E-004
                    25  3.421335852992346E-002
                    26  1.611407268612798E-003
                    27 -2.894934999015296E-004
                    28 -2.695010400980310E-003
                    29  7.724740784523593E-006
                    30  2.745880506847533E-006
                    31 -4.914982169998155E-007
                    32 -6.067169127552411E-007
                    33 -1.000652834369825E-005
                    34 -5.233924627985021E-006
                    35  4.366489144412519E-006
                    36  2.812007108154157E-006
 Sym= __9_A__
 Ene=   9.00000000000000     
 Spin= Alpha
 Occup=    1.00000000000000     
                     1 -2.635659099455605E-006
                     2  6.447004203411220E-006
                     3  1.832846644700249E-005
                     4 -0.264958463049067     
                     5 -1.279912409637858E-002
                     6 -4.235238574040161E-003
                     7 -0.412325647931059     
                     8 -1.991756101887471E-002
                     9 -6.595307665244353E-003
                    10 -5.820062365200342E-004
                    11 -2.099423936104798E-002
                    12 -9.867293958969704E-004
                    13  1.770265203896523E-004
                    14  1.653612152827390E-003
                    15 -1.251166171157445E-006
                    16  6.255871001495538E-007
                    17  1.298179582884498E-005
                    18  0.593798747630441     
                    19  2.867240981645263E-002
                    20  9.499501140547482E-003
                    21  0.606347989989609     
                    22  2.927614453053125E-002
                    23  9.704075991791926E-003
                    24 -5.863253378906897E-004
                    25 -2.113084137187933E-002
                    26 -9.948598274826339E-004
                    27  1.790827287116361E-004
                    28  1.664231419634125E-003
                    29 -3.846004872492221E-006
                    30 -3.057377037810840E-006
                    31 -9.794354658261138E-006
                    32 -1.056771205270115E-005
                    33 -1.583731247406645E-006
                    34  7.834316301145854E-007
                    35 -4.504416409433713E-006
                    36 -8.197688103575277E-006
 Sym= _10_A__
 Ene=   10.0000000000000     
 Spin= Alpha
 Occup=    1.00000000000000     
                     1 -9.943076739434371E-002
                     2  0.146980261683007     
                     3   1.60419142526797     
                     4 -1.604226224283582E-003
                     5 -1.037316769905920E-002
                     6  0.132609197611650     
                     7 -4.299267284285089E-003
                     8 -2.784748717211057E-002
                     9  0.356028692619935     
                    10  7.194966059651102E-003
                    11 -8.562901692013957E-005
                    12 -1.235887914466774E-003
                    13  3.319101624327448E-003
                    14  3.409823005790270E-004
                    15 -3.154993328982959E-002
                    16  6.822752386634881E-002
                    17  0.567076673213151     
                    18  1.633434438365240E-003
                    19  1.043601887537871E-002
                    20 -0.133647570836179     
                    21  7.113637509281768E-003
                    22  4.556056042579121E-002
                    23 -0.583313632577042     
                    24  9.395760115812078E-003
                    25 -4.221377933598872E-005
                    26 -1.886614600482829E-003
                    27  7.831839426149272E-003
                    28  7.885909900190543E-004
                    29 -7.171935686178242E-002
                    30  -1.00132840898330     
                    31 -7.172500960620092E-002
                    32  -1.00138396400533     
                    33 -1.465162124451111E-002
                    34 -0.564234605444657     
                    35 -1.465580053255029E-002
                    36 -0.564293016286361     
 Sym= _11_A__
 Ene=   11.0000000000000     
 Spin= Alpha
 Occup=    1.00000000000000     
                     1  5.572345180475236E-006
                     2 -8.648594086814800E-006
                     3 -8.665509873855526E-005
                     4  1.281305338596410E-002
                     5 -0.258527723128595     
                     6 -2.005835808871009E-002
                     7  3.358645049563053E-002
                     8 -0.677619377046578     
                     9 -5.257259930124728E-002
                    10  4.575449544628843E-003
                    11 -1.719495100178259E-003
                    12  3.385020257552507E-002
                    13  2.682774106087404E-003
                    14 -2.847886150304260E-004
                    15 -3.808363068986603E-006
                    16  5.479924703720961E-006
                    17  4.769824545035754E-005
                    18  1.194954524996215E-002
                    19 -0.241294822468595     
                    20 -1.870963915032855E-002
                    21  3.242430790470836E-002
                    22 -0.654858561811289     
                    23 -5.077540118109088E-002
                    24 -4.075962484651175E-003
                    25  1.532273313992799E-003
                    26 -3.015936447918824E-002
                    27 -2.390129857468914E-003
                    28  2.545519811015586E-004
                    29  9.247299351003629E-002
                    30   1.07497555861975     
                    31 -9.246510614857634E-002
                    32  -1.07487265207834     
                    33  5.982765309017140E-002
                    34  0.883053526262364     
                    35 -5.983138091257648E-002
                    36 -0.883105821506246     
 Sym= _12_A__
 Ene=   12.0000000000000     
 Spin= Alpha
 Occup=    1.00000000000000     
                     1 -6.214759301177133E-002
                     2  9.982862471201739E-002
                     3  0.903323676141341     
                     4 -1.947235126593992E-004
                     5 -1.310081682601510E-003
                     6  1.666663550198990E-002
                     7  6.876008897482945E-004
                     8  4.255792072899876E-003
                     9 -5.465221325541591E-002
                    10 -6.473584245587313E-003
                    11 -3.048842367495770E-005
                    12  1.533935704508788E-003
                    13 -8.402773543371047E-003
                    14 -8.378454042564530E-004
                    15  0.124577839509470     
                    16 -0.184754605752625     
                    17  -2.04328232329087     
                    18 -1.443954231357179E-003
                    19 -9.271787326153677E-003
                    20  0.118490500618268     
                    21 -4.489082524448698E-003
                    22 -2.880355870149150E-002
                    23  0.368084791883783     
                    24  3.773660333813836E-003
                    25 -1.693750977040613E-004
                    26 -1.630989789591719E-004
                    27 -4.547038719269976E-003
                    28 -4.374894226266213E-004
                    29 -3.674124768869265E-002
                    30 -0.499375511652095     
                    31 -3.674716872944331E-002
                    32 -0.499441447879670     
                    33  7.086759389932520E-002
                    34   1.31584854189633     
                    35  7.086273414461237E-002
                    36   1.31575439405210     
 Sym= _13_A__
 Ene=   13.0000000000000     
 Spin= Alpha
 Occup=    1.00000000000000     
                     1 -7.673069821892989E-007
                     2 -4.335177698965859E-007
                     3  2.912099693881133E-005
                     4  1.179723514251321E-002
                     5 -0.238098310960363     
                     6 -1.846355868373853E-002
                     7  5.459833124308285E-002
                     8  -1.10202114742499     
                     9 -8.547724100501665E-002
                    10 -2.961860268109393E-003
                    11  1.112901296563483E-003
                    12 -2.191714205735636E-002
                    13 -1.737197648510095E-003
                    14  1.837480405974525E-004
                    15  5.892503817686321E-007
                    16  3.990673820496598E-008
                    17 -3.051585820162998E-005
                    18 -1.461810698840179E-002
                    19  0.295193437320439     
                    20  2.289455523484111E-002
                    21 -8.141785191840373E-002
                    22   1.64377887416451     
                    23  0.127466894577288     
                    24  1.962994152827076E-004
                    25 -7.355565528887381E-005
                    26  1.455728406369962E-003
                    27  1.152277381320324E-004
                    28 -1.082559481495747E-005
                    29 -9.308116354657326E-003
                    30   1.08490229301781     
                    31  9.306089707478987E-003
                    32  -1.08492581610009     
                    33 -1.858780933240934E-002
                    34  -1.62596314974995     
                    35  1.858974252493972E-002
                    36   1.62599305403553     
 Sym= _14_A__
 Ene=   14.0000000000000     
 Spin= Alpha
 Occup=    1.00000000000000     
                     1 -5.271548389751638E-002
                     2  3.217717631879124E-002
                     3   2.03067271933401     
                     4  3.719424037867647E-003
                     5  2.382690866419112E-002
                     6 -0.304811076977899     
                     7  2.201342013136812E-002
                     8  0.140729963968768     
                     9  -1.80054781129952     
                    10  2.119587141756569E-002
                    11 -7.136197752118769E-004
                    12 -1.852347399784531E-003
                    13 -1.336845913119059E-002
                    14 -1.265739086958128E-003
                    15  6.119198992869779E-002
                    16  3.617680072363953E-002
                    17  -2.34887528620121     
                    18  8.493399667910447E-004
                    19  5.462988164120387E-003
                    20 -6.986802481520410E-002
                    21  3.138479327335254E-002
                    22  0.200368730643301     
                    23  -2.56341921631718     
                    24  2.912875230114082E-002
                    25 -2.802797721558568E-004
                    26 -5.284718470178178E-003
                    27  1.701929863002720E-002
                    28  1.731835308539126E-003
                    29  4.075217391673019E-002
                    30  0.682473558842339     
                    31  4.075392029717657E-002
                    32  0.682464395368656     
                    33 -5.180311157632117E-002
                    34 -0.277733075427851     
                    35 -5.180868927789104E-002
                    36 -0.277687238440578     
 Sym= _15_A__
 Ene=   15.0000000000000     
 Spin= Alpha
 Occup=    1.00000000000000     
                     1 -1.723199296987824E-005
                     2  2.234045444093878E-005
                     3  1.020958107070722E-004
                     4 -0.215483747040049     
                     5 -1.041768333163674E-002
                     6 -3.406696767131806E-003
                     7 -3.353135358490641E-003
                     8 -1.216186769699895E-004
                     9 -5.132050753847165E-004
                    10  2.196371752637081E-003
                    11  8.092341550436197E-002
                    12  3.813409712704316E-003
                    13 -6.966144142385340E-004
                    14 -6.375257829178953E-003
                    15  8.446187931765648E-006
                    16 -1.524238776808159E-004
                    17 -2.446783191828027E-004
                    18 -0.993770428840449     
                    19 -4.797173522373204E-002
                    20 -1.619369546095984E-002
                    21   1.12969621755833     
                    22  5.456061557240798E-002
                    23  1.819815563485602E-002
                    24 -1.240120927275895E-003
                    25 -4.469769040510713E-002
                    26 -2.100866129743693E-003
                    27  3.710678137705290E-004
                    28  3.519965014190459E-003
                    29  2.946653386947448E-005
                    30  6.281292341130254E-005
                    31  4.140246196282715E-005
                    32  4.487128910681160E-005
                    33  2.029144653424542E-005
                    34 -2.483234940309216E-006
                    35  3.303048598012132E-005
                    36  7.973393930870745E-006
 Sym= _16_A__
 Ene=   16.0000000000000     
 Spin= Alpha
 Occup=    1.00000000000000     
                     1 -5.103199328099544E-002
                     2  4.727053500130110E-002
                     3  0.315391148236907     
                     4 -9.958060659564848E-004
                     5 -6.788851248309992E-003
                     6  8.663793122389679E-002
                     7  1.743029233764233E-002
                     8  0.111407395345083     
                     9  -1.42497859497962     
                    10 -0.158843309762368     
                    11  2.620686006646158E-003
                    12  2.439988226387510E-002
                    13 -3.601737165952366E-002
                    14 -3.875560873235358E-003
                    15  2.655405510934652E-002
                    16 -0.461756287446247     
                    17 -0.755384740044757     
                    18  1.121442212777645E-002
                    19  6.939608310275920E-002
                    20 -0.889270137994885     