[Molden Format]
[Atoms] AU
  N     1    7     0.0972132200   -0.2376293800    1.1274469600        
  C     2    6     0.1268252400   -0.0485622000   -1.2915243900        
  H     3    1     0.0040988200    1.3143352800    2.2662795200        
  H     4    1     0.1657498300   -1.9478586600    2.0132356500        
  H     5    1     0.0512493900    1.8042583100   -2.1606211200        
  H     6    1     0.2269902100   -1.7440440500   -2.4357691300        
[5D]
[7F]
[GTO]
  1  0
   s     6 1.00
  0.417351D+04  0.183480D-02
  0.627458D+03  0.139950D-01
  0.142902D+03  0.685870D-01
  0.402343D+02  0.232241D+00
  0.128202D+02  0.469070D+00
  0.439044D+01  0.360455D+00
   s     3 1.00
  0.116264D+02 -0.114961D+00
  0.271628D+01 -0.169118D+00
  0.772218D+00  0.114585D+01
   s     1 1.00
  0.212031D+00  0.100000D+01
   p     3 1.00
  0.116264D+02  0.675800D-01
  0.271628D+01  0.323907D+00
  0.772218D+00  0.740895D+00
   p     1 1.00
  0.212031D+00  0.100000D+01
   d     1 1.00
  0.800000D+00  0.100000D+01
  
  2  0
   s     6 1.00
  0.304752D+04  0.183470D-02
  0.457370D+03  0.140373D-01
  0.103949D+03  0.688426D-01
  0.292102D+02  0.232184D+00
  0.928666D+01  0.467941D+00
  0.316393D+01  0.362312D+00
   s     3 1.00
  0.786827D+01 -0.119332D+00
  0.188129D+01 -0.160854D+00
  0.544249D+00  0.114346D+01
   s     1 1.00
  0.168714D+00  0.100000D+01
   p     3 1.00
  0.786827D+01  0.689991D-01
  0.188129D+01  0.316424D+00
  0.544249D+00  0.744308D+00
   p     1 1.00
  0.168714D+00  0.100000D+01
   d     1 1.00
  0.800000D+00  0.100000D+01
  
  3  0
   s     3 1.00
  0.187311D+02  0.334946D-01
  0.282539D+01  0.234727D+00
  0.640122D+00  0.813757D+00
   s     1 1.00
  0.161278D+00  0.100000D+01
  
  4  0
   s     3 1.00
  0.187311D+02  0.334946D-01
  0.282539D+01  0.234727D+00
  0.640122D+00  0.813757D+00
   s     1 1.00
  0.161278D+00  0.100000D+01
  
  5  0
   s     3 1.00
  0.187311D+02  0.334946D-01
  0.282539D+01  0.234727D+00
  0.640122D+00  0.813757D+00
   s     1 1.00
  0.161278D+00  0.100000D+01
  
  6  0
   s     3 1.00
  0.187311D+02  0.334946D-01
  0.282539D+01  0.234727D+00
  0.640122D+00  0.813757D+00
   s     1 1.00
  0.161278D+00  0.100000D+01
  
[MO]
 Sym= __1_A__
 Ene=  0.000000000000000E+000
 Spin= Alpha
 Occup=    2.00000000000000     
                     1  0.995953143780501     
                     2  2.394582783612230E-002
                     3 -1.248134079511021E-002
                     4  1.051854165465929E-005
                     5  6.634871133342952E-005
                     6 -8.489880323279083E-004
                     7 -1.868238414925726E-005
                     8 -1.182086405167215E-004
                     9  1.513121329230746E-003
                    10  3.339035337203440E-004
                    11 -7.583731842010466E-006
                    12 -4.341331414923897E-005
                    13 -2.654146775855442E-005
                    14 -1.880199133716775E-006
                    15  9.641763877131845E-005
                    16 -6.758911682590977E-004
                    17  4.730476549156621E-003
                    18  6.236668230163757E-006
                    19  3.974440359069447E-005
                    20 -5.084335817185640E-004
                    21 -2.761914738637850E-005
                    22 -1.765779181248098E-004
                    23  2.258561753137794E-003
                    24 -6.966808807443227E-004
                    25  1.391292079484197E-005
                    26  9.818527878329340E-005
                    27 -4.251474323481886E-005
                    28 -5.679363959124044E-006
                    29 -1.556921591068656E-005
                    30  1.777587891700498E-003
                    31 -1.553187484574821E-005
                    32  1.777622555162143E-003
                    33 -2.205384422836760E-004
                    34 -1.248115642804625E-004
                    35 -2.205515509544024E-004
                    36 -1.248724586661827E-004
 Sym= __2_A__
 Ene=  0.000000000000000E+000
 Spin= Alpha
 Occup=    2.00000000000000     
                     1 -3.281130881319876E-004
                     2 -1.463854097018886E-004
                     3 -1.870754515001901E-004
                     4 -5.408513381689084E-006
                     5 -3.463565537579227E-005
                     6  4.430916104922527E-004
                     7 -1.088996957186491E-005
                     8 -6.941207794344565E-005
                     9  8.889186389104381E-004
                    10 -6.950205976560889E-004
                    11  1.687323431172566E-005
                    12  8.623207557600036E-005
                    13  1.089377165951017E-004
                    14  9.174431194236482E-006
                    15  0.996084531178226     
                    16  2.405894796944304E-002
                    17 -9.579126980977388E-003
                    18 -1.701547915195583E-005
                    19 -1.086070321050166E-004
                    20  1.389425102130716E-003
                    21 -1.141491686205348E-005
                    22 -7.321216088749460E-005
                    23  9.364544372148906E-004
                    24  8.806707579827061E-004
                    25 -2.630126904380534E-005
                    26 -9.002076939218649E-005
                    27 -3.867563667206444E-004
                    28 -3.601530861894394E-005
                    29 -4.103057811585053E-006
                    30  6.285554371420655E-005
                    31 -4.070076097868450E-006
                    32  6.291258396971155E-005
                    33 -4.052205746695715E-004
                    34  2.577042245016310E-003
                    35 -4.052223308935332E-004
                    36  2.577013801025151E-003
 Sym= __3_A__
 Ene=  0.000000000000000E+000
 Spin= Alpha
 Occup=    2.00000000000000     
                     1 -0.191716455386121     
                     2  0.403264884939460     
                     3  0.407752955278197     
                     4  1.005935105251022E-003
                     5  6.381491784446756E-003
                     6 -8.165938144423787E-002
                     7  3.422331964475616E-004
                     8  2.157676156638985E-003
                     9 -2.761681421677019E-002
                    10  1.182570681074366E-002
                    11 -5.849363917869221E-004
                    12 -3.009641964875819E-004
                    13 -1.691454626855607E-002
                    14 -1.633803582562863E-003
                    15 -0.110055819956950     
                    16  0.223755226978331     
                    17  6.682812223635273E-002
                    18 -1.835044631338200E-003
                    19 -1.172362623190579E-002
                    20  0.149989562112107     
                    21  1.939835347778333E-004
                    22  1.236454364088529E-003
                    23 -1.581972764984587E-002
                    24  2.423293883378593E-002
                    25 -6.412681629423285E-004
                    26 -2.798289514586347E-003
                    27 -6.488917609115248E-003
                    28 -5.837598657540546E-004
                    29  9.454654129087341E-002
                    30 -1.127359885548298E-002
                    31  9.454768427640634E-002
                    32 -1.127397481070866E-002
                    33  3.745020439231985E-002
                    34 -1.265584276900353E-003
                    35  3.745081369429473E-002
                    36 -1.265293883492239E-003
 Sym= __4_A__
 Ene=  0.000000000000000E+000
 Spin= Alpha
 Occup=    2.00000000000000     
                     1 -7.869516497225625E-002
                     2  0.166936916186517     
                     3  0.264365986232317     
                     4 -3.533521718431363E-003
                     5 -2.264098651616830E-002
                     6  0.289696001129120     
                     7 -1.540700785220073E-003
                     8 -9.884420911484535E-003
                     9  0.126482108716611     
                    10 -1.255311160517072E-002
                    11 -7.804752725290939E-005
                    12  3.059748245665631E-003
                    13 -1.743014822370517E-002
                    14 -1.737390760970116E-003
                    15  0.161648768432504     
                    16 -0.341658852279544     
                    17 -0.302260988940630     
                    18 -5.200995694534436E-004
                    19 -3.348166759060989E-003
                    20  4.284816808299651E-002
                    21 -3.592533366023224E-004
                    22 -2.297832084989789E-003
                    23  2.939926330269157E-002
                    24 -1.990977520639122E-003
                    25  4.682609108159172E-004
                    26 -1.391263606175211E-003
                    27  2.147971410696986E-002
                    28  2.101918117490929E-003
                    29  0.127393574371869     
                    30  1.119131215325121E-002
                    31  0.127390080430991     
                    32  1.119136828668113E-002
                    33 -0.134295145256809     
                    34 -2.292929119582972E-002
                    35 -0.134294971487547     
                    36 -2.292918015994551E-002
 Sym= __5_A__
 Ene=  0.000000000000000E+000
 Spin= Alpha
 Occup=    2.00000000000000     
                     1 -3.648383679062889E-007
                     2  1.108147519467648E-006
                     3  8.898282568446971E-007
                     4 -2.373431246812229E-002
                     5  0.478922029591308     
                     6  3.714814131025433E-002
                     7 -1.557116043858768E-002
                     8  0.314195529814606     
                     9  2.437161061502159E-002
                    10  2.677343608929121E-003
                    11 -1.005834200477444E-003
                    12  1.980443286689034E-002
                    13  1.569610576859338E-003
                    14 -1.618582137914607E-004
                    15 -1.985862764739992E-006
                    16  4.614592350875409E-006
                    17  6.898896218153951E-006
                    18 -8.374600027082634E-003
                    19  0.169012926750907     
                    20  1.310154688314294E-002
                    21 -1.021454099461553E-003
                    22  2.060819256264155E-002
                    23  1.596507040083818E-003
                    24  1.689351906679587E-003
                    25 -6.355544418339255E-004
                    26  1.250220547223557E-002
                    27  9.905739506008992E-004
                    28 -1.053215466032488E-004
                    29  0.208055283807672     
                    30  3.654973019057004E-002
                    31 -0.208055363735650     
                    32 -3.655069162929659E-002
                    33  5.689159840155530E-002
                    34  2.272965199659508E-002
                    35 -5.688584968511524E-002
                    36 -2.272851192467776E-002
 Sym= __6_A__
 Ene=  0.000000000000000E+000
 Spin= Alpha
 Occup=    2.00000000000000     
                     1  1.061791252710493E-002
                     2 -2.598227172478305E-002
                     3 -9.119294051053595E-003
                     4 -4.806956496296297E-003
                     5 -3.082754774065940E-002
                     6  0.394313152012681     
                     7 -2.595722787674982E-003
                     8 -1.666791086517957E-002
                     9  0.213185286645201     
                    10 -1.273132773434454E-002
                    11  2.631617233925668E-005
                    12  2.690547823693538E-003
                    13 -1.235402611333770E-002
                    14 -1.239744482093956E-003
                    15 -4.033241628774564E-002
                    16  7.670834773390964E-002
                    17  0.213716049242786     
                    18  5.184468355670466E-003
                    19  3.309141271907462E-002
                    20 -0.423421480074684     
                    21  1.182484793307454E-003
                    22  7.557175062015280E-003
                    23 -9.669507832837478E-002
                    24 -2.922845176166462E-002
                    25  1.997764562727129E-004
                    26  5.620932060589611E-003
                    27 -2.119268336784194E-002
                    28 -2.141629746959024E-003
                    29  0.104484078624072     
                    30  3.174867522623789E-002
                    31  0.104487945885475     
                    32  3.174999293410252E-002
                    33  0.153229979703928     
                    34  6.840449774003880E-002
                    35  0.153229553702308     
                    36  6.840484969389600E-002
 Sym= __7_A__
 Ene=  0.000000000000000E+000
 Spin= Alpha
 Occup=    1.66575124806127     
                     1  4.178313142636383E-007
                     2 -9.359767226526293E-007
                     3 -3.502896478363661E-006
                     4 -8.216738114655755E-003
                     5  0.165524049350319     
                     6  1.283813575478684E-002
                     7 -8.394298540988570E-003
                     8  0.169213526615272     
                     9  1.312503720817478E-002
                    10  3.755689225601293E-003
                    11 -1.410803823580665E-003
                    12  2.778565346803644E-002
                    13  2.201991963826914E-003
                    14 -2.317339095579736E-004
                    15 -1.945534618924515E-007
                    16  3.413726661725939E-007
                    17  2.301185162540092E-006
                    18  2.264310538296177E-002
                    19 -0.457289485339930     
                    20 -3.546294211471350E-002
                    21  1.380986592678175E-002
                    22 -0.278858106532389     
                    23 -2.162360620249881E-002
                    24  4.985215659994408E-003
                    25 -1.874609977761277E-003
                    26  3.689413172960144E-002
                    27  2.923026727122372E-003
                    28 -3.095142787315670E-004
                    29  9.823572007009670E-002
                    30  4.550509855025908E-002
                    31 -9.823684949378252E-002
                    32 -4.550608109697803E-002
                    33 -0.241766273767925     
                    34 -9.679653090549213E-002
                    35  0.241768644095933     
                    36  9.679859415998000E-002
 Sym= __8_A__
 Ene=  0.000000000000000E+000
 Spin= Alpha
 Occup=    1.63269252464760     
                     1  5.959877516164011E-006
                     2 -1.568971323343942E-005
                     3 -1.996503782555331E-005
                     4  0.575756757909659     
                     5  2.782408798170060E-002
                     6  9.199061972358070E-003
                     7  0.451953707429168     
                     8  2.184216663027509E-002
                     9  7.223261508497446E-003
                    10 -5.117317678418708E-004
                    11 -1.842324764009297E-002
                    12 -8.660565471533187E-004
                    13  1.580786258270425E-004
                    14  1.451048228592616E-003
                    15 -1.873135991682595E-006
                    16  4.407259807449612E-006
                    17 -1.473419456312892E-006
                    18  0.201100906854439     
                    19  9.699185274523734E-003
                    20  3.232182369601575E-003
                    21  6.240653639449530E-002
                    22  3.004882472058955E-003
                    23  1.001816645934932E-003
                    24  9.503643972455455E-004
                    25  3.421335593195288E-002
                    26  1.611407148321761E-003
                    27 -2.894934779032218E-004
                    28 -2.695010196367231E-003
                    29  7.724742025060143E-006
                    30  2.745882124314952E-006
                    31 -4.914979577970478E-007
                    32 -6.067169582620254E-007
                    33 -1.000653039370394E-005
                    34 -5.233926576413172E-006
                    35  4.366491220335825E-006
                    36  2.812009167440599E-006
 Sym= __9_A__
 Ene=  0.000000000000000E+000
 Spin= Alpha
 Occup=   0.701556227291134     
                     1 -2.635658964171284E-006
                     2  6.447004112140491E-006
                     3  1.832846565179179E-005
                     4 -0.264958460735888     
                     5 -1.279912398055035E-002
                     6 -4.235238536082414E-003
                     7 -0.412325644740969     
                     8 -1.991756086095434E-002
                     9 -6.595307614192128E-003
                    10 -5.820062528368421E-004
                    11 -2.099423995210640E-002
                    12 -9.867294216413111E-004
                    13  1.770265258618224E-004
                    14  1.653612199401588E-003
                    15 -1.251166129980847E-006
                    16  6.255870135225978E-007
                    17  1.298179572040438E-005
                    18  0.593798749129783     
                    19  2.867240988716740E-002
                    20  9.499501164731555E-003
                    21  0.606347989013698     
                    22  2.927614447689625E-002
                    23  9.704075975415777E-003
                    24 -5.863253732361077E-004
                    25 -2.113084266592808E-002
                    26 -9.948598855724774E-004
                    27  1.790827395702244E-004
                    28  1.664231521408625E-003
                    29 -3.846005215203086E-006
                    30 -3.057376967195142E-006
                    31 -9.794354692676727E-006
                    32 -1.056771099750241E-005
                    33 -1.583729548168526E-006
                    34  7.834339081554378E-007
                    35 -4.504417780271957E-006
                    36 -8.197690423495998E-006
