[Molden Format]
[Atoms] AU
  N     1    7     0.0972132200   -0.2376293800    1.1274469600        
  C     2    6     0.1268252400   -0.0485622000   -1.2915243900        
  H     3    1     0.0040988200    1.3143352800    2.2662795200        
  H     4    1     0.1657498300   -1.9478586600    2.0132356500        
  H     5    1     0.0512493900    1.8042583100   -2.1606211200        
  H     6    1     0.2269902100   -1.7440440500   -2.4357691300        
[5D]
[7F]
[GTO]
  1  0
   s     6 1.00
  0.417351D+04  0.183480D-02
  0.627458D+03  0.139950D-01
  0.142902D+03  0.685870D-01
  0.402343D+02  0.232241D+00
  0.128202D+02  0.469070D+00
  0.439044D+01  0.360455D+00
   s     3 1.00
  0.116264D+02 -0.114961D+00
  0.271628D+01 -0.169118D+00
  0.772218D+00  0.114585D+01
   s     1 1.00
  0.212031D+00  0.100000D+01
   p     3 1.00
  0.116264D+02  0.675800D-01
  0.271628D+01  0.323907D+00
  0.772218D+00  0.740895D+00
   p     1 1.00
  0.212031D+00  0.100000D+01
   d     1 1.00
  0.800000D+00  0.100000D+01
  
  2  0
   s     6 1.00
  0.304752D+04  0.183470D-02
  0.457370D+03  0.140373D-01
  0.103949D+03  0.688426D-01
  0.292102D+02  0.232184D+00
  0.928666D+01  0.467941D+00
  0.316393D+01  0.362312D+00
   s     3 1.00
  0.786827D+01 -0.119332D+00
  0.188129D+01 -0.160854D+00
  0.544249D+00  0.114346D+01
   s     1 1.00
  0.168714D+00  0.100000D+01
   p     3 1.00
  0.786827D+01  0.689991D-01
  0.188129D+01  0.316424D+00
  0.544249D+00  0.744308D+00
   p     1 1.00
  0.168714D+00  0.100000D+01
   d     1 1.00
  0.800000D+00  0.100000D+01
  
  3  0
   s     3 1.00
  0.187311D+02  0.334946D-01
  0.282539D+01  0.234727D+00
  0.640122D+00  0.813757D+00
   s     1 1.00
  0.161278D+00  0.100000D+01
  
  4  0
   s     3 1.00
  0.187311D+02  0.334946D-01
  0.282539D+01  0.234727D+00
  0.640122D+00  0.813757D+00
   s     1 1.00
  0.161278D+00  0.100000D+01
  
  5  0
   s     3 1.00
  0.187311D+02  0.334946D-01
  0.282539D+01  0.234727D+00
  0.640122D+00  0.813757D+00
   s     1 1.00
  0.161278D+00  0.100000D+01
  
  6  0
   s     3 1.00
  0.187311D+02  0.334946D-01
  0.282539D+01  0.234727D+00
  0.640122D+00  0.813757D+00
   s     1 1.00
  0.161278D+00  0.100000D+01
  
[MO]
 Sym= __1_a__
 Ene=  0.000000000000000E+000
 Spin= Alpha
 Occup=    2.00000000000000     
                     1  0.995953143766872     
                     2  2.394582786498380E-002
                     3 -1.248134076707690E-002
                     4  1.051854198870460E-005
                     5  6.634871347250740E-005
                     6 -8.489880596749400E-004
                     7 -1.868238398367410E-005
                     8 -1.182086394551450E-004
                     9  1.513121315662240E-003
                    10  3.339035352484061E-004
                    11 -7.583731883717040E-006
                    12 -4.341331432094070E-005
                    13 -2.654146822821040E-005
                    14 -1.880199176474640E-006
                    15  9.641763058798481E-005
                    16 -6.758911560736810E-004
                    17  4.730476543178830E-003
                    18  6.236667828696010E-006
                    19  3.974440102811430E-005
                    20 -5.084335489246780E-004
                    21 -2.761914743496410E-005
                    22 -1.765779184354660E-004
                    23  2.258561757113460E-003
                    24 -6.966808775101709E-004
                    25  1.391292073875770E-005
                    26  9.818527829436240E-005
                    27 -4.251474260834760E-005
                    28 -5.679363890674840E-006
                    29 -1.556921524563330E-005
                    30  1.777587889203710E-003
                    31 -1.553187418191870E-005
                    32  1.777622552665070E-003
                    33 -2.205384475124860E-004
                    34 -1.248115679567280E-004
                    35 -2.205515561834500E-004
                    36 -1.248724623425670E-004
 Sym= __2_a__
 Ene=  0.000000000000000E+000
 Spin= Alpha
 Occup=    2.00000000000000     
                     1 -3.281130725797480E-004
                     2 -1.463854378452270E-004
                     3 -1.870754744292470E-004
                     4 -5.408514139567540E-006
                     5 -3.463566022933750E-005
                     6  4.430916725856630E-004
                     7 -1.088996995125490E-005
                     8 -6.941208037576239E-005
                     9  8.889186700276770E-004
                    10 -6.950206005052404E-004
                    11  1.687323435763620E-005
                    12  8.623207602113750E-005
                    13  1.089377158582754E-004
                    14  9.174431115751600E-006
                    15  0.996084531188535     
                    16  2.405894794738590E-002
                    17 -9.579126973701850E-003
                    18 -1.701547844217860E-005
                    19 -1.086070275746870E-004
                    20  1.389425044166680E-003
                    21 -1.141491675761250E-005
                    22 -7.321216021980970E-005
                    23  9.364544286718740E-004
                    24  8.806707526991488E-004
                    25 -2.630126895281600E-005
                    26 -9.002076859069859E-005
                    27 -3.867563677785900E-004
                    28 -3.601530873415630E-005
                    29 -4.103048538973270E-006
                    30  6.285554862059330E-005
                    31 -4.070066825424220E-006
                    32  6.291258887621210E-005
                    33 -4.052205654696420E-004
                    34  2.577042251960060E-003
                    35 -4.052223216937970E-004
                    36  2.577013807968870E-003
 Sym= __3_a__
 Ene=  0.000000000000000E+000
 Spin= Alpha
 Occup=    1.98158276809583     
                     1  0.192554916472142     
                     2 -0.409484127806375     
                     3 -0.413293041238248     
                     4  6.230322575153661E-004
                     5  4.049906707906420E-003
                     6 -5.180195934092610E-002
                     7  4.559159178451480E-004
                     8  2.950745305849830E-003
                     9 -3.774467204451640E-002
                    10 -6.155072574169146E-003
                    11  5.373471969935520E-004
                    12 -7.562120514202730E-004
                    13  2.059057004287860E-002
                    14  2.007102084230610E-003
                    15  9.341673640518371E-002
                    16 -0.189970879225040     
                    17 -6.730731127013551E-002
                    18  6.323454100915971E-004
                    19  4.055468087741730E-003
                    20 -5.185487840159720E-002
                    21 -3.846466747652260E-004
                    22 -2.447164097045920E-003
                    23  3.132332927260740E-002
                    24 -1.596487585989414E-002
                    25  5.058293099056570E-004
                    26  1.516983563081360E-003
                    27  8.493130833098720E-003
                    28  7.984135746731150E-004
                    29 -0.133359816724799     
                    30 -3.355304293156640E-003
                    31 -0.133359676607751     
                    32 -3.354692099281780E-003
                    33 -5.377629130733620E-002
                    34 -1.505631535464500E-002
                    35 -5.377832167837490E-002
                    36 -1.505734022248460E-002
 Sym= __4_a__
 Ene=  0.000000000000000E+000
 Spin= Alpha
 Occup=    1.97375000981869     
                     1  6.728574377221890E-002
                     2 -0.147467692893548     
                     3 -0.239879009972253     
                     4  2.036751207222570E-003
                     5  1.301184318117770E-002
                     6 -0.166536738223098     
                     7  6.498855682839260E-004
                     8  4.137255252393250E-003
                     9 -5.298475355023390E-002
                    10  1.053717212814847E-002
                    11 -2.347059518367500E-005
                    12 -2.219226567758760E-003
                    13  1.011671973101698E-002
                    14  1.016228619331970E-003
                    15 -0.174622193698640     
                    16  0.372302468470019     
                    17  0.356320662625120     
                    18  1.777909782674460E-003
                    19  1.139248285869610E-002
                    20 -0.145676332106949     
                    21  5.050688509904650E-004
                    22  3.249897868914730E-003
                    23 -4.152587344628930E-002
                    24 -7.859577535968242E-003
                    25 -3.114219701460760E-004
                    26  2.936542288733420E-003
                    27 -2.411766781751560E-002
                    28 -2.381285926958400E-003
                    29 -8.514617229930210E-002
                    30 -4.211132573521090E-003
                    31 -8.514002945819850E-002
                    32 -4.209377254203470E-003
                    33  0.171196713995253     
                    34  4.816636045333170E-002
                    35  0.171188530462976     
                    36  4.816285235523450E-002
 Sym= __5_a__
 Ene=  0.000000000000000E+000
 Spin= Alpha
 Occup=    1.97299837281974     
                     1  1.488829952457580E-006
                     2 -3.486122606552390E-006
                     3 -5.986968611715160E-006
                     4  1.454581094815200E-002
                     5 -0.292973622056142     
                     6 -2.272718367807030E-002
                     7  7.550305635370790E-003
                     8 -0.151841551953637     
                     9 -1.177883922593800E-002
                    10  6.045792814842044E-004
                    11 -2.260039920581140E-004
                    12  4.474581803592370E-003
                    13  3.546599383108680E-004
                    14 -4.030005001296430E-005
                    15 -6.522294673681310E-007
                    16  1.049456521388040E-006
                    17  1.726156618667180E-007
                    18  2.065104906022710E-002
                    19 -0.417495828832705     
                    20 -3.237474112838050E-002
                    21  9.070273376758701E-003
                    22 -0.183519395956056     
                    23 -1.423044222836670E-002
                    24  8.511391168339059E-004
                    25 -3.173005213344880E-004
                    26  6.299807098579920E-003
                    27  4.986859036766060E-004
                    28 -5.279444055951480E-005
                    29 -0.105442601342732     
                    30 -5.082180014052530E-004
                    31  0.105439743561752     
                    32  5.083861504643920E-004
                    33 -0.181391581030442     
                    34 -7.419939120421069E-002
                    35  0.181392575570662     
                    36  7.420075682694610E-002
 Sym= __6_a__
 Ene=  0.000000000000000E+000
 Spin= Alpha
 Occup=    1.96896568061449     
                     1  1.509960314263190E-006
                     2 -3.181592131248810E-006
                     3 -6.435195613306340E-006
                     4 -2.101121858807810E-002
                     5  0.424985328275636     
                     6  3.296026280390950E-002
                     7 -1.512806385252580E-002
                     8  0.306181045161601     
                     9  2.374817402897340E-002
                    10  4.173316933720752E-003
                    11 -1.566734666234390E-003
                    12  3.087208578520180E-002
                    13  2.446845018047560E-003
                    14 -2.554740627105670E-004
                    15 -2.959057100960250E-006
                    16  6.582447760707060E-006
                    17  8.720794552141710E-006
                    18  1.353590809854590E-002
                    19 -0.273204583132606     
                    20 -2.119006878977820E-002
                    21  1.015006859673610E-002
                    22 -0.205221195832349     
                    23 -1.591456545583870E-002
                    24  4.494330546632825E-003
                    25 -1.686729317789770E-003
                    26  3.326095390505820E-002
                    27  2.635015483823520E-003
                    28 -2.796044969375990E-004
                    29  0.204324695348914     
                    30  6.604308519913350E-002
                    31 -0.204329475197409     
                    32 -6.604456299999650E-002
                    33 -0.156476520347630     
                    34 -7.063649562003750E-002
                    35  0.156483933965989     
                    36  7.063929471046911E-002
 Sym= __7_a__
 Ene=  0.000000000000000E+000
 Spin= Alpha
 Occup=    1.95950256066707     
                     1  3.987489656955390E-002
                     2 -8.966556063769410E-002
                     3 -4.887362339048340E-002
                     4 -5.704066379532110E-003
                     5 -3.658928402902790E-002
                     6  0.468073006541237     
                     7 -2.799669876276110E-003
                     8 -1.799552943884280E-002
                     9  0.230205408833391     
                    10 -1.748696628864295E-002
                    11  1.715728129423870E-004
                    12  3.165044229145510E-003
                    13 -1.011311601373018E-002
                    14 -1.029783298919540E-003
                    15  3.196423252267950E-002
                    16 -7.697551621890000E-002
                    17  0.104758023313597     
                    18  5.219923085315550E-003
                    19  3.331706242015090E-002
                    20 -0.426319256229533     
                    21  8.771299369187030E-004
                    22  5.619550114475170E-003
                    23 -7.191782192654890E-002
                    24 -3.483676498453740E-002
                    25  5.142238337151870E-004
                    26  5.620333021623150E-003
                    27 -1.131393401919592E-002
                    28 -1.185449029716480E-003
                    29  0.104176936774444     
                    30  3.796362930228990E-002
                    31  0.104177379969127     
                    32  3.796427813150330E-002
                    33  9.526363942212430E-002
                    34  5.972171243772680E-002
                    35  9.526449752282720E-002
                    36  5.972245761864340E-002
 Sym= __8_a__
 Ene=  0.000000000000000E+000
 Spin= Alpha
 Occup=    1.48372425566596     
                     1 -5.052081105779660E-006
                     2  1.377052398189470E-005
                     3  2.375417470102490E-005
                     4 -0.618585908134758     
                     5 -2.987062190000150E-002
                     6 -9.880819228868069E-003
                     7 -0.606796507517804     
                     8 -2.929846637364880E-002
                     9 -9.698010301529499E-003
                    10  1.718661871782319E-004
                    11  6.151054638104950E-003
                    12  2.919356981702960E-004
                    13 -5.469362663887100E-005
                    14 -4.845640493814500E-004
                    15 -8.449403360182260E-008
                    16 -1.542097865309220E-006
                    17  1.312721333721870E-005
                    18  0.215716741167579     
                    19  1.037434010786530E-002
                    20  3.430279561483680E-003
                    21  0.324169688627526     
                    22  1.562855965216050E-002
                    23  5.182452718634100E-003
                    24 -1.067922523382730E-003
                    25 -3.846065693243230E-002
                    26 -1.807618747122030E-003
                    27  3.256700349825500E-004
                    28  3.029367595940360E-003
                    29  2.949594425573430E-006
                    30  1.622807894928990E-006
                    31 -1.703453024488110E-005
                    32 -1.150924265792420E-005
                    33 -1.369373162133920E-005
                    34 -3.713778250630080E-006
                    35  1.752649314681890E-005
                    36  1.888590680312710E-006
 Sym= __9_a__
 Ene=  0.000000000000000E+000
 Spin= Alpha
 Occup=   0.502641213643975     
                     1  7.495617031038860E-007
                     2 -3.659968699102170E-006
                     3  1.294217785652780E-005
                     4  0.197731506044107     
                     5  9.523321935383930E-003
                     6  3.154037533747100E-003
                     7 -0.100607182866772     
                     8 -4.878535386915420E-003
                     9 -1.613340388304680E-003
                    10 -1.098689458673144E-003
                    11 -3.961117220440540E-002
                    12 -1.864187630715720E-003
                    13  3.350638184260080E-004
                    14  3.119888406170030E-003
                    15 -1.997285943200630E-006
                    16  1.815862033871220E-006
                    17  1.108091602300270E-005
                    18  0.582122933020851     
                    19  2.809678721473820E-002
                    20  9.318012769512090E-003
                    21  0.534671420870356     
                    22  2.581634038973480E-002
                    23  8.556560509211140E-003
                    24  7.502231455827629E-005
                    25  2.667120534564610E-003
                    26  1.255926852568600E-004
                    27 -2.196461479010900E-005
                    28 -2.101851102315650E-004
                    29 -3.057377309687850E-006
                    30  7.791511370279291E-006
                    31 -7.434306553010730E-006
                    32 -2.602123963724960E-005
                    33  1.217488031986610E-006
                    34  2.157015410339540E-006
                    35 -1.158990242043590E-005
                    36 -1.357821678259730E-005
 Sym= _10_a__
 Ene=  0.000000000000000E+000
 Spin= Alpha
 Occup=   2.783423091327010E-002
                     1 -9.712428643116780E-002
                     2  0.447851839668538     
                     3  0.624105435463455     
                     4  8.222989094767111E-003
                     5  5.259714631965120E-002
                     6 -0.672739152587165     
                     7  5.043169404666730E-003
                     8  3.208355488436790E-002
                     9 -0.410453256570356     
                    10 -0.111548346403715     
                    11  3.170652840176680E-003
                    12  1.203927118910920E-002
                    13  4.074015844302320E-002
                    14  3.747445461956250E-003
                    15  9.724650724976480E-002
                    16 -0.433835504688796     
                    17 -0.574178314473902     
                    18  9.453955781818421E-003
                    19  6.033370702427660E-002
                    20 -0.772075968877442     
                    21  5.696720722329880E-003
                    22  3.646829160695420E-002
                    23 -0.466620421026852     
                    24  3.910254013585356E-002
                    25 -2.946793899315890E-004
                    26 -7.391309936744550E-003
                    27  2.668780133022920E-002
                    28  2.704812184468800E-003
                    29 -4.788228977530460E-002
                    30  6.793309129253990E-002
                    31 -4.787016284515220E-002
                    32  6.794045652041590E-002
                    33  4.120029339764520E-002
                    34 -5.563420208990660E-002
                    35  4.119308318854820E-002
                    36 -5.563898964279990E-002
 Sym= _11_a__
 Ene=  0.000000000000000E+000
 Spin= Alpha
 Occup=   1.824836685158690E-002
                     1  1.532310070674990E-005
                     2 -1.124615350779620E-004
                     3  8.258779284439570E-006
                     4 -4.559092257264550E-002
                     5  0.920989816919287     
                     6  7.136688571825740E-002
                     7  1.057002931164950E-002
                     8 -0.214275433564039     
                     9 -1.661608034135670E-002
                    10 -9.547179961756714E-003
                    11  3.598625587703620E-003
                    12 -7.067437427179440E-002
                    13 -5.617984281844320E-003
                    14  5.790046429895800E-004
                    15  7.080675858427660E-006
                    16 -5.361666365996590E-005
                    17 -2.044278304742540E-005
                    18  1.066380168117600E-002
                    19 -0.214925306563003     
                    20 -1.662692415738010E-002
                    21 -6.901744505731990E-003
                    22  0.139653692025705     
                    23  1.083399152006040E-002
                    24  7.502056210517842E-003
                    25 -2.840337765247940E-003
                    26  5.551680910405610E-002
                    27  4.395497044749760E-003
                    28 -4.667289785333330E-004
                    29 -0.405422042251503     
                    30 -0.213338108634298     
                    31  0.405535543914662     
                    32  0.213399505814800     
                    33  1.208376365534830E-003
                    34  5.810099556532460E-002
                    35 -1.156005036175440E-003
                    36 -5.804748465814890E-002
 Sym= _12_a__
 Ene=  0.000000000000000E+000
 Spin= Alpha
 Occup=   1.804959039837180E-002
                     1  9.499224219952300E-002
                     2 -0.717722673422858     
                     3  0.106017351450416     
                     4  6.558768834505070E-003
                     5  4.204875404128710E-002
                     6 -0.539636341415082     
                     7 -1.709218660647020E-004
                     8 -1.092066194932640E-003
                     9  1.434157092745930E-002
                    10  2.507627493753995E-002
                    11 -2.744704218167770E-003
                    12  5.274350541385350E-003
                    13 -0.112036046519566     
                    14 -1.094218044309610E-002
                    15  5.754033230562610E-002
                    16 -0.408144562486126     
                    17 -0.168540150044931     
                    18 -2.301487647069510E-003
                    19 -1.478320071232230E-002
                    20  0.189633301402496     
                    21  1.116217214019890E-004
                    22  6.534276735212720E-004
                    23 -8.727042844353990E-003
                    24  1.009131830395372E-002
                    25 -6.320697689846280E-004
                    26  2.351206872480950E-004
                    27 -2.095524409466440E-002
                    28 -2.032273553474970E-003
                    29  0.374149852206176     
                    30  0.203578025513943     
                    31  0.374025292173010     
                    32  0.203515114378188     
                    33  0.181564000806638     
                    34  0.179619894440840     
                    35  0.181556039111580     
                    36  0.179632029388969     
 Sym= _13_a__
 Ene=  0.000000000000000E+000
 Spin= Alpha
 Occup=   1.592477993875160E-002
                     1  1.603804751264070E-006
                     2 -9.482894478004420E-006
                     3  1.883342370883780E-006
                     4 -3.021065830717090E-003
                     5  6.091371839394710E-002
                     6  4.725656270194320E-003
                     7  4.711901534216490E-003
                     8 -9.455422690318110E-002
                     9 -7.333537038935890E-003
                    10  2.197850743657176E-002
                    11 -8.216675911367580E-003
                    12  0.162592031606498     
                    13  1.288408527015226E-002
                    14 -1.370786885605250E-003
                    15 -3.947246692309030E-006
                    16  2.608109127185540E-005
                    17 -9.808547483140831E-008
                    18  4.312685631222110E-002
                    19 -0.870582043269387     
                    20 -6.751786800921250E-002
                    21 -2.296444926983180E-003
                    22  4.582236580133850E-002
                    23  3.549121431195840E-003
                    24 -1.203412750315878E-002
                    25  4.493670626947470E-003
                    26 -8.904825369433500E-002
                    27 -7.055061248114300E-003
                    28  7.495469851278390E-004
                    29  0.129874696238571     
                    30 -5.068959949125960E-002
                    31 -0.129866676099319     
                    32  5.069295459232320E-002
                    33  0.472500253112128     
                    34  0.242564643847570     
                    35 -0.472527741776129     
                    36 -0.242581382520187     
 Sym= _14_a__
 Ene=  0.000000000000000E+000
 Spin= Alpha
 Occup=   1.532831960073990E-002
                     1  5.459011247671860E-002
                     2 -0.372209825051859     
                     3  0.216909347495023     
                     4  2.544089197509800E-003
                     5  1.641858283494730E-002
                     6 -0.210086829828305     
                     7  5.391503170351820E-004
                     8  3.360942695422690E-003
                     9 -4.290776020893590E-002
                    10  1.256364297713447E-002
                    11 -1.680853990449080E-003
                    12  3.846995829896960E-003
                    13 -7.185792850841900E-002
                    14 -7.030530953535050E-003
                    15 -0.114185674597666     
                    16  0.793305915108493     
                    17 -4.683545221939100E-002
                    18  5.632403190890820E-003
                    19  3.600334651111070E-002
                    20 -0.460407574019632     
                    21  2.052292615506630E-003
                    22  1.317837136924930E-002
                    23 -0.168642666083938     
                    24  1.158079986039570E-002
                    25  3.473166320433880E-004
                    26 -3.922565732249160E-003
                    27  3.033562919700280E-002
                    28  2.978844907328570E-003
                    29  0.227037680758437     
                    30  6.680422082418611E-002
                    31  0.227047696866265     
                    32  6.680365709686489E-002
                    33 -0.466654891219961     
                    34 -0.275947480302946     
                    35 -0.466629853749143     
                    36 -0.275934703736110     
