[Molden Format]
[Atoms] AU
  N     1    7     0.0972132200   -0.2376293800    1.1274469600        
  C     2    6     0.1268252400   -0.0485622000   -1.2915243900        
  H     3    1     0.0040988200    1.3143352800    2.2662795200        
  H     4    1     0.1657498300   -1.9478586600    2.0132356500        
  H     5    1     0.0512493900    1.8042583100   -2.1606211200        
  H     6    1     0.2269902100   -1.7440440500   -2.4357691300        
[5D]
[7F]
[GTO]
  1  0
   s     6 1.00
  0.417351D+04  0.183480D-02
  0.627458D+03  0.139950D-01
  0.142902D+03  0.685870D-01
  0.402343D+02  0.232241D+00
  0.128202D+02  0.469070D+00
  0.439044D+01  0.360455D+00
   s     3 1.00
  0.116264D+02 -0.114961D+00
  0.271628D+01 -0.169118D+00
  0.772218D+00  0.114585D+01
   s     1 1.00
  0.212031D+00  0.100000D+01
   p     3 1.00
  0.116264D+02  0.675800D-01
  0.271628D+01  0.323907D+00
  0.772218D+00  0.740895D+00
   p     1 1.00
  0.212031D+00  0.100000D+01
   d     1 1.00
  0.800000D+00  0.100000D+01
  
  2  0
   s     6 1.00
  0.304752D+04  0.183470D-02
  0.457370D+03  0.140373D-01
  0.103949D+03  0.688426D-01
  0.292102D+02  0.232184D+00
  0.928666D+01  0.467941D+00
  0.316393D+01  0.362312D+00
   s     3 1.00
  0.786827D+01 -0.119332D+00
  0.188129D+01 -0.160854D+00
  0.544249D+00  0.114346D+01
   s     1 1.00
  0.168714D+00  0.100000D+01
   p     3 1.00
  0.786827D+01  0.689991D-01
  0.188129D+01  0.316424D+00
  0.544249D+00  0.744308D+00
   p     1 1.00
  0.168714D+00  0.100000D+01
   d     1 1.00
  0.800000D+00  0.100000D+01
  
  3  0
   s     3 1.00
  0.187311D+02  0.334946D-01
  0.282539D+01  0.234727D+00
  0.640122D+00  0.813757D+00
   s     1 1.00
  0.161278D+00  0.100000D+01
  
  4  0
   s     3 1.00
  0.187311D+02  0.334946D-01
  0.282539D+01  0.234727D+00
  0.640122D+00  0.813757D+00
   s     1 1.00
  0.161278D+00  0.100000D+01
  
  5  0
   s     3 1.00
  0.187311D+02  0.334946D-01
  0.282539D+01  0.234727D+00
  0.640122D+00  0.813757D+00
   s     1 1.00
  0.161278D+00  0.100000D+01
  
  6  0
   s     3 1.00
  0.187311D+02  0.334946D-01
  0.282539D+01  0.234727D+00
  0.640122D+00  0.813757D+00
   s     1 1.00
  0.161278D+00  0.100000D+01
  
[MO]
 Sym= __1_a__
 Ene=  0.000000000000000E+000
 Spin= Alpha
 Occup=    2.00000000000000     
                     1  0.995953143766872     
                     2  2.394582786498380E-002
                     3 -1.248134076707690E-002
                     4  1.051854198870460E-005
                     5  6.634871347250740E-005
                     6 -8.489880596749400E-004
                     7 -1.868238398367410E-005
                     8 -1.182086394551450E-004
                     9  1.513121315662240E-003
                    10  3.339035352484061E-004
                    11 -7.583731883717040E-006
                    12 -4.341331432094070E-005
                    13 -2.654146822821040E-005
                    14 -1.880199176474640E-006
                    15  9.641763058798481E-005
                    16 -6.758911560736810E-004
                    17  4.730476543178830E-003
                    18  6.236667828696010E-006
                    19  3.974440102811430E-005
                    20 -5.084335489246780E-004
                    21 -2.761914743496410E-005
                    22 -1.765779184354660E-004
                    23  2.258561757113460E-003
                    24 -6.966808775101709E-004
                    25  1.391292073875770E-005
                    26  9.818527829436240E-005
                    27 -4.251474260834760E-005
                    28 -5.679363890674840E-006
                    29 -1.556921524563330E-005
                    30  1.777587889203710E-003
                    31 -1.553187418191870E-005
                    32  1.777622552665070E-003
                    33 -2.205384475124860E-004
                    34 -1.248115679567280E-004
                    35 -2.205515561834500E-004
                    36 -1.248724623425670E-004
 Sym= __2_a__
 Ene=  0.000000000000000E+000
 Spin= Alpha
 Occup=    2.00000000000000     
                     1 -3.281130725797480E-004
                     2 -1.463854378452270E-004
                     3 -1.870754744292470E-004
                     4 -5.408514139567540E-006
                     5 -3.463566022933750E-005
                     6  4.430916725856630E-004
                     7 -1.088996995125490E-005
                     8 -6.941208037576239E-005
                     9  8.889186700276770E-004
                    10 -6.950206005052404E-004
                    11  1.687323435763620E-005
                    12  8.623207602113750E-005
                    13  1.089377158582754E-004
                    14  9.174431115751600E-006
                    15  0.996084531188535     
                    16  2.405894794738590E-002
                    17 -9.579126973701850E-003
                    18 -1.701547844217860E-005
                    19 -1.086070275746870E-004
                    20  1.389425044166680E-003
                    21 -1.141491675761250E-005
                    22 -7.321216021980970E-005
                    23  9.364544286718740E-004
                    24  8.806707526991488E-004
                    25 -2.630126895281600E-005
                    26 -9.002076859069859E-005
                    27 -3.867563677785900E-004
                    28 -3.601530873415630E-005
                    29 -4.103048538973270E-006
                    30  6.285554862059330E-005
                    31 -4.070066825424220E-006
                    32  6.291258887621210E-005
                    33 -4.052205654696420E-004
                    34  2.577042251960060E-003
                    35 -4.052223216937970E-004
                    36  2.577013807968870E-003
 Sym= __3_a__
 Ene=  0.000000000000000E+000
 Spin= Alpha
 Occup=    1.98372510868992     
                     1  0.195066733105692     
                     2 -0.411472147009452     
                     3 -0.412762627544890     
                     4 -5.124149233106740E-006
                     5  1.768828706344360E-005
                     6 -2.236715799166840E-004
                     7  1.689172964184210E-004
                     8  1.109496222751250E-003
                     9 -1.419180848753430E-002
                    10 -7.826849058844185E-003
                    11  5.711498259991360E-004
                    12 -5.231452412714580E-004
                    13  2.052211604727980E-002
                    14  1.995602972157880E-003
                    15  9.719378071336859E-002
                    16 -0.193125551799846     
                    17 -7.193136895591749E-002
                    18  1.220399087623610E-003
                    19  7.781334537899720E-003
                    20 -9.955263510150790E-002
                    21 -2.238970458948370E-004
                    22 -1.442833389716230E-003
                    23  1.846267975054340E-002
                    24 -1.781871246685140E-002
                    25  5.161782466218330E-004
                    26  1.883133914530270E-003
                    27  7.025905522750700E-003
                    28  6.507032182993680E-004
                    29 -0.121600976034353     
                    30  1.581037028506190E-003
                    31 -0.121600716116390     
                    32  1.581533570138710E-003
                    33 -4.178448710847520E-002
                    34 -4.967776355163960E-003
                    35 -4.178462152934740E-002
                    36 -4.967787388828790E-003
 Sym= __4_a__
 Ene=  0.000000000000000E+000
 Spin= Alpha
 Occup=    1.97227639953655     
                     1 -5.041973095470990E-002
                     2  0.109556760395864     
                     3  0.192238307988916     
                     4 -4.385102643699000E-003
                     5 -2.809834969984110E-002
                     6  0.359515550183449     
                     7 -1.998347021042430E-003
                     8 -1.281880211349860E-002
                     9  0.164020816818995     
                    10 -1.200667708389013E-002
                    11 -3.923321286440500E-005
                    12  2.789672686343200E-003
                    13 -1.490436251434308E-002
                    14 -1.488338761713790E-003
                    15  0.164555179035893     
                    16 -0.346804355465233     
                    17 -0.265468655150736     
                    18  5.852639168900910E-004
                    19  3.704819068309800E-003
                    20 -4.738968851721210E-002
                    21 -1.936756611490900E-004
                    22 -1.239378168633820E-003
                    23  1.585977769874950E-002
                    24 -8.209416650381334E-003
                    25  5.152573970287200E-004
                    26 -2.131774837086960E-004
                    27  1.720122314952252E-002
                    28  1.668606897398140E-003
                    29  0.133008851828984     
                    30  2.218675363198370E-002
                    31  0.133004995065799     
                    32  2.218673519353320E-002
                    33 -0.111538760776999     
                    34 -9.953125572386810E-003
                    35 -0.111539073812995     
                    36 -9.952878850334791E-003
 Sym= __5_a__
 Ene=  0.000000000000000E+000
 Spin= Alpha
 Occup=    1.96534533696490     
                     1 -4.490110288201970E-002
                     2  0.100398899351272     
                     3  8.588396789014530E-002
                     4  4.126297693093550E-003
                     5  2.643075856056640E-002
                     6 -0.338192129638190     
                     7  2.134421392684150E-003
                     8  1.368710237929810E-002
                     9 -0.175133135905350     
                    10  7.711670996396310E-003
                    11 -6.776163746552510E-005
                    12 -1.429354384652700E-003
                    13  4.891901358723260E-003
                    14  4.966817905464060E-004
                    15  5.563052053828480E-002
                    16 -0.111569862362372     
                    17 -0.229480498342637     
                    18 -5.346038066865210E-003
                    19 -3.414102412805470E-002
                    20  0.436804310524848     
                    21 -1.377614115382910E-003
                    22 -8.807972426818069E-003
                    23  0.112690414321791     
                    24  2.447216861669120E-002
                    25 -1.256885035046410E-004
                    26 -4.869573489765730E-003
                    27  1.985002161821558E-002
                    28  1.999033067371090E-003
                    29 -7.004967879379211E-002
                    30 -3.477941424620970E-002
                    31 -7.004487321106870E-002
                    32 -3.477902100793310E-002
                    33 -0.177863007819066     
                    34 -7.204904396711551E-002
                    35 -0.177859995848047     
                    36 -7.204853413032300E-002
 Sym= __6_a__
 Ene=  0.000000000000000E+000
 Spin= Alpha
 Occup=    1.96288415246796     
                     1  5.716530358205000E-007
                     2 -1.604250627914620E-006
                     3 -1.628333357570800E-006
                     4  2.205533885855970E-002
                     5 -0.465069469864127     
                     6 -3.607764109479400E-002
                     7  1.371784443750850E-002
                     8 -0.290584714856889     
                     9 -2.254424296161030E-002
                    10 -2.046525882463610E-003
                    11  8.013322667339580E-004
                    12 -1.514121038315880E-002
                    13 -1.200681674417726E-003
                    14  1.205124106853320E-004
                    15  7.565987162339760E-007
                    16 -2.190800176422480E-006
                    17 -1.816578105424650E-006
                    18  8.938128045490660E-003
                    19 -0.194457664726890     
                    20 -1.509263538552850E-002
                    21  2.107308324238850E-003
                    22 -5.018880683669740E-002
                    23 -3.897097622455320E-003
                    24 -1.620615640923679E-003
                    25  5.592442543480710E-004
                    26 -1.198116595623120E-002
                    27 -9.492168657543800E-004
                    28  1.048991644267610E-004
                    29 -0.204507847528501     
                    30 -4.311189422611600E-002
                    31  0.204512485218011     
                    32  4.311450049527450E-002
                    33 -7.169614846088090E-002
                    34 -2.245384161621960E-002
                    35  7.169803620466091E-002
                    36  2.245619000575950E-002
 Sym= __7_a__
 Ene=  0.000000000000000E+000
 Spin= Alpha
 Occup=    1.96076337717781     
                     1 -4.174175576619100E-006
                     2  1.127492481763620E-005
                     3  1.371041126537570E-005
                     4 -0.495020076101400     
                     5 -2.295384946978650E-002
                     6 -7.833593379109469E-003
                     7 -0.340069212346959     
                     8 -1.581934641933640E-002
                     9 -5.385052256994770E-003
                    10  4.628747675234858E-004
                    11  1.650044142391420E-002
                    12  8.071254646144930E-004
                    13 -1.393964376142768E-004
                    14 -1.299955694161460E-003
                    15  3.242401352937690E-006
                    16 -6.750122631619860E-006
                    17 -2.882656032980520E-006
                    18 -0.353520525335532     
                    19 -1.671661167632120E-002
                    20 -5.642205224681970E-003
                    21 -0.194546080390605     
                    22 -9.298303004757020E-003
                    23 -3.108674682024780E-003
                    24 -6.911782653048850E-004
                    25 -2.503027058898940E-002
                    26 -1.148176749374150E-003
                    27  2.145033881871540E-004
                    28  1.971420050532880E-003
                    29  4.030946162845840E-004
                    30  6.139190986114751E-005
                    31 -4.092600772845560E-004
                    32 -6.163670732569560E-005
                    33  1.073677346681070E-004
                    34  7.786200147837380E-006
                    35 -1.027670480913120E-004
                    36 -4.455158972247050E-006
 Sym= __8_a__
 Ene=  0.000000000000000E+000
 Spin= Alpha
 Occup=    1.00665217687767     
                     1 -4.417392387930830E-007
                     2  1.081801667602260E-006
                     3  2.915273120927290E-006
                     4  1.558933164645240E-003
                     5 -0.191190295132639     
                     6 -1.492541229441830E-002
                     7 -8.734238295565071E-004
                     8 -0.159073276047777     
                     9 -1.244506254245560E-002
                    10 -3.657998697012037E-003
                    11  8.780148717304490E-004
                    12 -2.698497495458270E-002
                    13 -2.132594351677720E-003
                    14  2.632933679509640E-004
                    15  1.287938321874360E-007
                    16 -2.977783550811800E-007
                    17 -9.276680454664560E-007
                    18 -1.068398185132870E-002
                    19  0.417244702752774     
                    20  3.247910788677480E-002
                    21 -1.086912298290990E-003
                    22  0.223866429484062     
                    23  1.748179171949440E-002
                    24 -5.087418405032446E-003
                    25  1.341680930775010E-003
                    26 -3.756085670525900E-002
                    27 -2.968932173901120E-003
                    28  3.592081981110890E-004
                    29 -0.116734174509672     
                    30 -5.382028902190140E-002
                    31  0.116735342405959     
                    32  5.382089156765850E-002
                    33  0.274911087700218     
                    34  0.115786437397658     
                    35 -0.274914261697357     
                    36 -0.115788578476034     
 Sym= __9_a__
 Ene=  0.000000000000000E+000
 Spin= Alpha
 Occup=    1.00446058335901     
                     1  4.504936570910770E-006
                     2 -1.152677459210840E-005
                     3 -2.302048305652640E-005
                     4  0.424819656112805     
                     5  1.697707495275690E-002
                     6  6.511249532141170E-003
                     7  0.470155692960020     
                     8  1.971825322140240E-002
                     9  7.282922420198550E-003
                    10  6.787808467458939E-004
                    11  2.693224767801850E-002
                    12  7.697060940779450E-004
                    13 -2.663173447696020E-004
                    14 -2.115319377852270E-003
                    15  9.719021223520449E-007
                    16 -5.226590027578760E-007
                    17 -1.295119171986890E-005
                    18 -0.540998855852545     
                    19 -1.840531531689180E-002
                    20 -8.049905124250750E-003
                    21 -0.541335131803213     
                    22 -2.200027465624880E-002
                    23 -8.340306321900630E-003
                    24  7.443543385071969E-004
                    25  3.027818541768300E-002
                    26  7.222609369076620E-004
                    27 -3.116880133932460E-004
                    28 -2.376052884713700E-003
                    29 -2.145279055837800E-003
                    30 -9.411855518043910E-004
                    31  2.160858568585350E-003
                    32  9.571188620198020E-004
                    33  5.085482032023280E-003
                    34  2.141035956234120E-003
                    35 -5.081884053025850E-003
                    36 -2.135752917217720E-003
 Sym= _10_a__
 Ene=  0.000000000000000E+000
 Spin= Alpha
 Occup=   2.025597237486470E-002
                     1 -8.052081152833580E-002
                     2  0.421433484651001     
                     3  0.261656448457889     
                     4  5.570753419618060E-003
                     5  3.557237885975980E-002
                     6 -0.454930004265231     
                     7  2.175924401351800E-003
                     8  1.389687470948750E-002
                     9 -0.177833420202992     
                    10 -6.149503772924466E-002
                    11  1.943352863804790E-003
                    12  5.852445402766110E-003
                    13  3.257739918506100E-002
                    14  3.060664607466820E-003
                    15  0.156860975190483     
                    16 -0.679387448041530     
                    17 -0.668888097576117     
                    18  2.246712912466800E-003
                    19  1.430585765369460E-002
                    20 -0.183043856315400     
                    21  9.918058504964891E-004
                    22  6.296029176894930E-003
                    23 -8.049211189029350E-002
                    24  2.218214551296466E-002
                    25 -4.700690032009900E-003
                    26  1.351306336641420E-002
                    27 -0.213585686388326     
                    28 -2.086557123494610E-002
                    29 -7.637721624070180E-002
                    30  1.469604946199520E-002
                    31 -7.636578445375120E-002
                    32  1.469947055502650E-002
                    33  0.432886945960646     
                    34  0.207729915865498     
                    35  0.432886347204574     
                    36  0.207733588643977     
 Sym= _11_a__
 Ene=  0.000000000000000E+000
 Spin= Alpha
 Occup=   1.787456551301940E-002
                     1  0.104761991050898     
                     2 -0.635433077683559     
                     3 -0.232267786219097     
                     4 -2.024688002548240E-003
                     5 -1.270749601864300E-002
                     6  0.162373007498429     
                     7 -2.019424277259750E-003
                     8 -1.296256395178740E-002
                     9  0.165861006970413     
                    10  9.304116669942106E-002
                    11 -3.948130058607610E-003
                    12 -4.919934036884660E-003
                    13 -0.100092516893344     
                    14 -9.592122497209169E-003
                    15  1.090114620971690E-002
                    16 -6.832204899012270E-002
                    17 -5.220098782304160E-002
                    18 -9.301525466598270E-003
                    19 -5.952098423434780E-002
                    20  0.761600134956036     
                    21 -3.263179208847470E-003
                    22 -2.080025282729620E-002
                    23  0.266132836352267     
                    24 -4.344648884565987E-002
                    25 -2.121745032456680E-003
                    26  1.780451079166040E-002
                    27 -0.153587432518050     
                    28 -1.510357666665020E-002
                    29  0.228950193838214     
                    30  5.275997130706340E-002
                    31  0.228931587312260     
                    32  5.275358435001240E-002
                    33  0.329896920827826     
                    34  0.178887978076240     
                    35  0.329891641645385     
                    36  0.178886587473830     
 Sym= _12_a__
 Ene=  0.000000000000000E+000
 Spin= Alpha
 Occup=   1.652659965480080E-002
                     1 -5.216652756124300E-006
                     2  3.505647345454960E-005
                     3 -1.870923745251910E-006
                     4  3.846025069132300E-002
                     5 -0.782371638717652     
                     6 -6.067050337860740E-002
                     7 -4.546913510830260E-003
                     8  9.725079692100190E-002
                     9  7.546122040363400E-003
                    10  2.273500289600914E-002
                    11 -8.536836641268201E-003
                    12  0.168216027564351     
                    13  1.333812435229978E-002
                    14 -1.402890186328900E-003
                    15  1.411855474260910E-006
                    16 -5.061752343000870E-006
                    17 -2.136435783905990E-006
                    18  5.786233231336720E-003
                    19 -0.120909342116372     
                    20 -9.380741174346990E-003
                    21  7.664619001827680E-003
                    22 -0.151846113268390     
                    23 -1.177202518645430E-002
                    24 -1.554727170581815E-002
                    25  5.853795624245400E-003
                    26 -0.115053760156295     
                    27 -9.119186402391920E-003
                    28  9.687772766807870E-004
                    29  0.436920700060972     
                    30  0.175735413746982     
                    31 -0.436961911685864     
                    32 -0.175751379472101     
                    33  0.160943020724203     
                    34  8.432008031840930E-002
                    35 -0.160933447224832     
                    36 -8.431770196678780E-002
 Sym= _13_a__
 Ene=  0.000000000000000E+000
 Spin= Alpha
 Occup=   1.574750356687110E-002
                     1 -6.426910810646330E-002
                     2  0.499575947966654     
                     3 -0.250989851054563     
                     4 -9.466731007639289E-003
                     5 -6.075052674374100E-002
                     6  0.777512215799017     
                     7 -4.430351319814590E-004
                     8 -2.764892331032200E-003
                     9  3.530225045938640E-002
                    10  1.707283870832562E-002
                    11  2.195361883663030E-003
                    12 -1.238600928737780E-002
                    13  0.129826002738976     
                    14  1.272873404683340E-002
                    15 -9.740711680304730E-003
                    16  6.123071374312570E-002
                    17  9.758481471143400E-002
                    18 -4.896299770919610E-003
                    19 -3.116331061115500E-002
                    20  0.398816480545283     
                    21 -2.492339242432230E-003
                    22 -1.596186474650020E-002
                    23  0.204352683605560     
                    24 -4.094834095895906E-002
                    25 -4.036592167180370E-004
                    26  1.058262039921190E-002
                    27 -6.458675528084640E-002
                    28 -6.407635305121650E-003
                    29 -0.401411271045669     
                    30 -0.159507304454584     
                    31 -0.401381591207673     
                    32 -0.159497256899601     
                    33  0.156981993722418     
                    34  4.597305988294600E-002
                    35  0.156999290131581     
                    36  4.598259135845580E-002
 Sym= _14_a__
 Ene=  0.000000000000000E+000
 Spin= Alpha
 Occup=   1.057990752230970E-002
                     1 -4.009188125111840E-006
                     2  4.873305875286740E-005
                     3 -3.654050030529890E-005
                     4 -0.956393308081579     
                     5 -4.229367010886870E-002
                     6 -1.498160207912220E-002
                     7   1.08848660351526     
                     8  5.021848922312640E-002
                     9  1.721344056787220E-002
                    10 -6.826987035362525E-004
                    11 -3.118305194462360E-002
                    12 -5.898764034938080E-005
                    13  3.935189505506080E-004
                    14  2.439397922859550E-003
                    15 -9.127037560219660E-007
                    16  8.767612167922279E-006
                    17 -1.417847671879500E-005
                    18 -0.267606412909297     
                    19 -1.702545627479250E-002
                    20 -4.611663530724170E-003
                    21 -4.302818606854900E-002
                    22 -2.584427657123850E-003
                    23 -7.247423228781670E-004
                    24  3.649738647812729E-003
                    25  0.136677011309514     
                    26  5.399384050978430E-003
                    27 -1.239207625781620E-003
                    28 -1.075351978102790E-002
                    29 -4.155497644830890E-004
                    30 -2.170399672678780E-004
                    31  4.049816539158750E-004
                    32  2.177732169191820E-004
                    33  2.425325739770920E-003
                    34  1.503976478586740E-003
                    35 -2.429946569008450E-003
                    36 -1.504329014099210E-003
 Sym= _15_a__
 Ene=  0.000000000000000E+000
 Spin= Alpha
 Occup=   1.048794539819940E-002
                     1  2.368062537097920E-008
                     2  9.102096340630260E-007
                     3 -4.492351004413850E-006
                     4 -2.333673137146950E-002
                     5  0.593248819496319     
                     6  4.609546725831990E-002
                     7  1.145615866474250E-002
                     8 -0.372332494727968     
                     9 -2.896699618842070E-002
                    10  3.405969988946031E-002
                    11 -1.263897357177250E-002
                    12  0.251965952539729     
                    13  1.996841066635974E-002
                    14 -2.137984023045830E-003
                    15 -8.680124034690330E-007
                    16  1.540008140618860E-006
                    17  7.377938285154030E-007
                    18  3.187090205874070E-002
                    19 -0.615492381061059     
                    20 -4.770624087728440E-002
                    21  6.120655322082470E-003
                    22 -0.110689514186202     
                    23 -8.576149488121481E-003
                    24 -2.507610715301293E-002
                    25  8.560013697789550E-003
                    26 -0.185419421165130     
                    27 -1.468016528864208E-002
                    28  1.620975142841020E-003
                    29 -3.289767537547190E-002
                    30 -4.786620182874950E-002
                    31  3.289296239189200E-002
                    32  4.786872152194470E-002
                    33  0.394498941296441     
                    34  0.228191096881020     
                    35 -0.394501133822367     
                    36 -0.228192482267600     
