[Molden Format]
[Atoms] AU
  N     1    7     0.0972132200   -0.2376293800    1.1274469600        
  C     2    6     0.1268252400   -0.0485622000   -1.2915243900        
  H     3    1     0.0040988200    1.3143352800    2.2662795200        
  H     4    1     0.1657498300   -1.9478586600    2.0132356500        
  H     5    1     0.0512493900    1.8042583100   -2.1606211200        
  H     6    1     0.2269902100   -1.7440440500   -2.4357691300        
[5D]
[7F]
[GTO]
  1  0
   s     6 1.00
  0.417351D+04  0.183480D-02
  0.627458D+03  0.139950D-01
  0.142902D+03  0.685870D-01
  0.402343D+02  0.232241D+00
  0.128202D+02  0.469070D+00
  0.439044D+01  0.360455D+00
   s     3 1.00
  0.116264D+02 -0.114961D+00
  0.271628D+01 -0.169118D+00
  0.772218D+00  0.114585D+01
   s     1 1.00
  0.212031D+00  0.100000D+01
   p     3 1.00
  0.116264D+02  0.675800D-01
  0.271628D+01  0.323907D+00
  0.772218D+00  0.740895D+00
   p     1 1.00
  0.212031D+00  0.100000D+01
   d     1 1.00
  0.800000D+00  0.100000D+01
  
  2  0
   s     6 1.00
  0.304752D+04  0.183470D-02
  0.457370D+03  0.140373D-01
  0.103949D+03  0.688426D-01
  0.292102D+02  0.232184D+00
  0.928666D+01  0.467941D+00
  0.316393D+01  0.362312D+00
   s     3 1.00
  0.786827D+01 -0.119332D+00
  0.188129D+01 -0.160854D+00
  0.544249D+00  0.114346D+01
   s     1 1.00
  0.168714D+00  0.100000D+01
   p     3 1.00
  0.786827D+01  0.689991D-01
  0.188129D+01  0.316424D+00
  0.544249D+00  0.744308D+00
   p     1 1.00
  0.168714D+00  0.100000D+01
   d     1 1.00
  0.800000D+00  0.100000D+01
  
  3  0
   s     3 1.00
  0.187311D+02  0.334946D-01
  0.282539D+01  0.234727D+00
  0.640122D+00  0.813757D+00
   s     1 1.00
  0.161278D+00  0.100000D+01
  
  4  0
   s     3 1.00
  0.187311D+02  0.334946D-01
  0.282539D+01  0.234727D+00
  0.640122D+00  0.813757D+00
   s     1 1.00
  0.161278D+00  0.100000D+01
  
  5  0
   s     3 1.00
  0.187311D+02  0.334946D-01
  0.282539D+01  0.234727D+00
  0.640122D+00  0.813757D+00
   s     1 1.00
  0.161278D+00  0.100000D+01
  
  6  0
   s     3 1.00
  0.187311D+02  0.334946D-01
  0.282539D+01  0.234727D+00
  0.640122D+00  0.813757D+00
   s     1 1.00
  0.161278D+00  0.100000D+01
  
[MO]
 Sym= __1_a__
 Ene=  0.000000000000000E+000
 Spin= Alpha
 Occup=    2.00000000000000     
                     1  0.995953143766872     
                     2  2.394582786498380E-002
                     3 -1.248134076707690E-002
                     4  1.051854198870460E-005
                     5  6.634871347250740E-005
                     6 -8.489880596749400E-004
                     7 -1.868238398367410E-005
                     8 -1.182086394551450E-004
                     9  1.513121315662240E-003
                    10  3.339035352484061E-004
                    11 -7.583731883717040E-006
                    12 -4.341331432094070E-005
                    13 -2.654146822821040E-005
                    14 -1.880199176474640E-006
                    15  9.641763058798481E-005
                    16 -6.758911560736810E-004
                    17  4.730476543178830E-003
                    18  6.236667828696010E-006
                    19  3.974440102811430E-005
                    20 -5.084335489246780E-004
                    21 -2.761914743496410E-005
                    22 -1.765779184354660E-004
                    23  2.258561757113460E-003
                    24 -6.966808775101709E-004
                    25  1.391292073875770E-005
                    26  9.818527829436240E-005
                    27 -4.251474260834760E-005
                    28 -5.679363890674840E-006
                    29 -1.556921524563330E-005
                    30  1.777587889203710E-003
                    31 -1.553187418191870E-005
                    32  1.777622552665070E-003
                    33 -2.205384475124860E-004
                    34 -1.248115679567280E-004
                    35 -2.205515561834500E-004
                    36 -1.248724623425670E-004
 Sym= __2_a__
 Ene=  0.000000000000000E+000
 Spin= Alpha
 Occup=    2.00000000000000     
                     1 -3.281130725797480E-004
                     2 -1.463854378452270E-004
                     3 -1.870754744292470E-004
                     4 -5.408514139567540E-006
                     5 -3.463566022933750E-005
                     6  4.430916725856630E-004
                     7 -1.088996995125490E-005
                     8 -6.941208037576239E-005
                     9  8.889186700276770E-004
                    10 -6.950206005052404E-004
                    11  1.687323435763620E-005
                    12  8.623207602113750E-005
                    13  1.089377158582754E-004
                    14  9.174431115751600E-006
                    15  0.996084531188535     
                    16  2.405894794738590E-002
                    17 -9.579126973701850E-003
                    18 -1.701547844217860E-005
                    19 -1.086070275746870E-004
                    20  1.389425044166680E-003
                    21 -1.141491675761250E-005
                    22 -7.321216021980970E-005
                    23  9.364544286718740E-004
                    24  8.806707526991488E-004
                    25 -2.630126895281600E-005
                    26 -9.002076859069859E-005
                    27 -3.867563677785900E-004
                    28 -3.601530873415630E-005
                    29 -4.103048538973270E-006
                    30  6.285554862059330E-005
                    31 -4.070066825424220E-006
                    32  6.291258887621210E-005
                    33 -4.052205654696420E-004
                    34  2.577042251960060E-003
                    35 -4.052223216937970E-004
                    36  2.577013807968870E-003
 Sym= __3_a__
 Ene=  0.000000000000000E+000
 Spin= Alpha
 Occup=    1.98374601539415     
                     1 -0.182087466866882     
                     2  0.387258711135562     
                     3  0.373155144462978     
                     4  4.574772204617230E-006
                     5 -3.347576058424410E-005
                     6  4.131965963781020E-004
                     7 -2.174372622931870E-004
                     8 -1.428524713649910E-003
                     9  1.826669092094520E-002
                    10  8.235713665638555E-003
                    11 -5.003707940450320E-004
                    12  1.559279731436900E-004
                    13 -1.649916248806860E-002
                    14 -1.600891312310540E-003
                    15 -0.121180729783200     
                    16  0.244908717516910     
                    17  0.127916164738544     
                    18 -6.221757934902830E-004
                    19 -3.977853814764350E-003
                    20  5.087463587799470E-002
                    21  3.798360933696610E-004
                    22  2.427078683192270E-003
                    23 -3.106026009469850E-002
                    24  1.536155456846598E-002
                    25 -5.109715086931480E-004
                    26 -1.364816543832170E-003
                    27 -9.398232969024600E-003
                    28 -8.882870999858620E-004
                    29  0.112019020548337     
                    30 -2.727500206956930E-003
                    31  0.112019508101183     
                    32 -2.727923654593950E-003
                    33  7.351754222217791E-002
                    34  1.608853146106340E-002
                    35  7.351849363958750E-002
                    36  1.608907218656020E-002
 Sym= __4_a__
 Ene=  0.000000000000000E+000
 Spin= Alpha
 Occup=    1.97674014952350     
                     1 -9.548199582604990E-002
                     2  0.210534263263410     
                     3  0.276312445925526     
                     4 -2.051812431282970E-003
                     5 -1.318585233186700E-002
                     6  0.168723979201212     
                     7 -8.109510330351000E-004
                     8 -5.228612950006670E-003
                     9  6.691664759953780E-002
                    10 -6.228933754719032E-003
                    11 -1.527319676934260E-004
                    12  1.964076430486840E-003
                    13 -1.440477812529420E-002
                    14 -1.426778986158280E-003
                    15  0.155896554775153     
                    16 -0.331514404566263     
                    17 -0.322156836823583     
                    18 -2.057916833841610E-003
                    19 -1.318705620785850E-002
                    20  0.168701376382383     
                    21 -6.400813522596160E-004
                    22 -4.102150668106720E-003
                    23  5.246963757136070E-002
                    24  8.025812371223644E-003
                    25  2.932199391045300E-004
                    26 -2.899328820894950E-003
                    27  2.333962028874480E-002
                    28  2.306037726319030E-003
                    29  0.104195802433179     
                    30  2.364647764061790E-003
                    31  0.104193224274799     
                    32  2.364316577425600E-003
                    33 -0.164656214645243     
                    34 -4.651146740186720E-002
                    35 -0.164653021895013     
                    36 -4.651020164722290E-002
 Sym= __5_a__
 Ene=  0.000000000000000E+000
 Spin= Alpha
 Occup=    1.97513789999172     
                     1 -1.100992799984660E-006
                     2  2.659293669533370E-006
                     3  4.489406149457230E-006
                     4 -1.349244590240880E-002
                     5  0.272483189571008     
                     6  2.113662783105100E-002
                     7 -6.620888955162720E-003
                     8  0.133769900444114     
                     9  1.037678177504350E-002
                    10 -3.756953976205152E-004
                    11  1.410558680657680E-004
                    12 -2.781821675169130E-003
                    13 -2.204268158813740E-004
                    14  2.543886579534760E-005
                    15 -1.218609399558970E-007
                    16  6.287996513448500E-007
                    17  9.890193813531969E-007
                    18 -2.100267122782150E-002
                    19  0.424052444619368     
                    20  3.288313567470510E-002
                    21 -9.144500655624031E-003
                    22  0.184601306583630     
                    23  1.431421593753850E-002
                    24 -1.672022919440921E-003
                    25  6.288746884175500E-004
                    26 -1.237496607564890E-002
                    27 -9.802140969729380E-004
                    28  1.034995553618220E-004
                    29  9.849836313290290E-002
                    30  7.640257600049540E-004
                    31 -9.849677647789400E-002
                    32 -7.642314543428280E-004
                    33  0.192602731642061     
                    34  8.659626302498841E-002
                    35 -0.192602678653914     
                    36 -8.659740666424920E-002
 Sym= __6_a__
 Ene=  0.000000000000000E+000
 Spin= Alpha
 Occup=    1.97142136488749     
                     1 -6.263632750757560E-007
                     2  1.273030333247240E-006
                     3  2.956228321045090E-006
                     4  2.165053588238490E-002
                     5 -0.437090350486433     
                     6 -3.390268146471420E-002
                     7  1.516683484993780E-002
                     8 -0.306190462992346     
                     9 -2.374991593407700E-002
                    10 -4.718955600819897E-003
                    11  1.773414263736850E-003
                    12 -3.491074676165070E-002
                    13 -2.766778557295340E-003
                    14  2.897638658838730E-004
                    15  9.718841914843149E-007
                    16 -2.296518004414590E-006
                    17 -4.964270924680990E-006
                    18 -1.235744032939300E-002
                    19  0.249478549685340     
                    20  1.935039153658240E-002
                    21 -9.578914646519139E-003
                    22  0.193343242393556     
                    23  1.499340573284450E-002
                    24 -4.665790636274814E-003
                    25  1.753490292374120E-003
                    26 -3.452988072523470E-002
                    27 -2.735828394247780E-003
                    28  2.900626267067190E-004
                    29 -0.211330828729929     
                    30 -6.896898588214510E-002
                    31  0.211332343202485     
                    32  6.897002820456850E-002
                    33  0.148347932982298     
                    34  6.952646100007261E-002
                    35 -0.148352407907084     
                    36 -6.952871750322610E-002
 Sym= __7_a__
 Ene=  0.000000000000000E+000
 Spin= Alpha
 Occup=    1.96851532674872     
                     1 -2.812735238370490E-002
                     2  6.311949958150891E-002
                     3  2.287128532170140E-002
                     4  5.793995220335050E-003
                     5  3.710091581596500E-002
                     6 -0.474594527803767     
                     7  2.890306282015890E-003
                     8  1.852009699777930E-002
                     9 -0.236896946688399     
                    10  1.225248033103442E-002
                    11 -1.745664322730280E-005
                    12 -2.620729701200570E-003
                    13  1.229401750712638E-002
                    14  1.232736776909010E-003
                    15 -2.812502146357780E-002
                    16  6.162526252682820E-002
                    17 -9.801571075351689E-002
                    18 -5.058648325637530E-003
                    19 -3.229671746967230E-002
                    20  0.413242210895247     
                    21 -9.765399959605420E-004
                    22 -6.244500079715550E-003
                    23  7.989605321626039E-002
                    24  2.936680154388506E-002
                    25 -3.737499844359240E-004
                    26 -4.970561874049260E-003
                    27  1.254606065531958E-002
                    28  1.294049382721530E-003
                    29 -0.113846511392636     
                    30 -3.788157425586110E-002
                    31 -0.113848233697189     
                    32 -3.788277972991280E-002
                    33 -9.707194899808710E-002
                    34 -5.966835658915620E-002
                    35 -9.707097157567220E-002
                    36 -5.966852851434310E-002
 Sym= __8_a__
 Ene=  0.000000000000000E+000
 Spin= Alpha
 Occup=    1.92550515066038     
                     1 -6.341838594703720E-006
                     2  1.632086687229310E-005
                     3  1.887795647218680E-005
                     4 -0.516955842572342     
                     5 -2.496588166267110E-002
                     6 -8.260450561471219E-003
                     7 -0.358103299676211     
                     8 -1.729496021064600E-002
                     9 -5.723030844184820E-003
                    10  5.448206092049260E-004
                    11  1.961122633486170E-002
                    12  9.228183255913250E-004
                    13 -1.676856590543792E-004
                    14 -1.544645351175900E-003
                    15  3.641102323511190E-006
                    16 -7.788684948703340E-006
                    17 -5.814278602762820E-006
                    18 -0.326468831537686     
                    19 -1.576068839038910E-002
                    20 -5.232712849895980E-003
                    21 -0.168957672852075     
                    22 -8.156506795467630E-003
                    23 -2.706411973125480E-003
                    24 -8.867020788895248E-004
                    25 -3.194667001623890E-002
                    26 -1.503304468361630E-003
                    27  2.706140594394480E-004
                    28  2.516450496938960E-003
                    29  3.394443901319980E-007
                    30 -1.686275621477700E-006
                    31 -4.766201605137380E-006
                    32  1.558273085005280E-006
                    33  2.096696111791320E-006
                    34  1.644644462573290E-006
                    35 -1.309272484430150E-006
                    36 -4.378106362371080E-008
 Sym= __9_a__
 Ene=  0.000000000000000E+000
 Spin= Alpha
 Occup=   6.407141861514461E-002
                     1  3.946735596861340E-006
                     2 -1.857406163898770E-005
                     3 -3.606262055095340E-006
                     4  0.604656946314165     
                     5  2.920531477004980E-002
                     6  9.658057374828770E-003
                     7  0.153548336021766     
                     8  7.414255740946910E-003
                     9  2.451835709952590E-003
                    10  1.438591686275726E-003
                    11  5.179894221860190E-002
                    12  2.437079484658710E-003
                    13 -4.431040412652520E-004
                    14 -4.080557554401660E-003
                    15  1.804798905466240E-006
                    16 -7.866590671784679E-006
                    17 -1.135085464212070E-005
                    18 -0.623478826922035     
                    19 -3.010770186549260E-002
                    20 -9.980589354430540E-003
                    21 -0.345385859564535     
                    22 -1.667662328904500E-002
                    23 -5.531664305774450E-003
                    24 -2.356318152904228E-004
                    25 -8.534294476491660E-003
                    26 -4.009149720814730E-004
                    27  7.102178709430961E-005
                    28  6.722753874758150E-004
                    29  7.818195137381880E-006
                    30  7.037570690628890E-006
                    31  1.191336359560990E-005
                    32  3.515259494992830E-006
                    33  6.657862168453890E-007
                    34 -5.024812809317490E-007
                    35  5.273513046507660E-006
                    36  3.867473096868080E-006
 Sym= _10_a__
 Ene=  0.000000000000000E+000
 Spin= Alpha
 Occup=   1.939343856627970E-002
                     1 -9.875068480720120E-002
                     2  0.563004258641387     
                     3  0.306644534529928     
                     4  8.510999991176131E-003
                     5  5.443313498386140E-002
                     6 -0.695856579820124     
                     7  2.442826054651170E-003
                     8  1.555661048638200E-002
                     9 -0.199130606170536     
                    10 -9.536939263137797E-002
                    11  2.411886177526600E-003
                    12  1.144347520029000E-002
                    13  1.992751159523414E-002
                    14  1.748959545346790E-003
                    15  0.118377120369696     
                    16 -0.564952083257300     
                    17 -0.369749390838211     
                    18  8.346892628392520E-003
                    19  5.327753373896320E-002
                    20 -0.681789612234130     
                    21  3.302222785700950E-003
                    22  2.105839667796920E-002
                    23 -0.269363766536535     
                    24  3.548107449849802E-002
                    25 -6.257790642905280E-004
                    26 -5.321542580030270E-003
                    27  6.344705040032400E-003
                    28  7.002404870229030E-004
                    29 -4.994010946914040E-002
                    30  3.142257406801720E-002
                    31 -4.990007634030540E-002
                    32  3.143622870479750E-002
                    33  0.105695218211452     
                    34  2.767749601480320E-002
                    35  0.105693053036559     
                    36  2.767859464227270E-002
 Sym= _11_a__
 Ene=  0.000000000000000E+000
 Spin= Alpha
 Occup=   1.784899845019280E-002
                     1 -5.693028475519730E-006
                     2  3.577215796683730E-005
                     3  8.920177252865051E-006
                     4  4.226797857216590E-002
                     5 -0.853163138507675     
                     6 -6.619643745734829E-002
                     7 -9.491928287398071E-003
                     8  0.191777895026625     
                     9  1.486864003601310E-002
                    10  1.550740720695737E-002
                    11 -5.829242206349720E-003
                    12  0.114761200818251     
                    13  9.097538315146520E-003
                    14 -9.558138406816830E-004
                    15  4.491221434299360E-006
                    16 -2.067453777003990E-005
                    17 -1.125594994717800E-005
                    18  6.398658595744500E-003
                    19 -0.129234254767263     
                    20 -1.005237357643340E-002
                    21  6.332442042978260E-003
                    22 -0.127902681245779     
                    23 -9.928622435734670E-003
                    24 -9.848917574603660E-003
                    25  3.702542626499960E-003
                    26 -7.289709109834300E-002
                    27 -5.775641899281400E-003
                    28  6.150358278675600E-004
                    29  0.436930834358183     
                    30  0.144026198219760     
                    31 -0.436950843103823     
                    32 -0.144030350546122     
                    33  0.157772958047650     
                    34  6.991821406920259E-002
                    35 -0.157767728047244     
                    36 -6.991777017700430E-002
 Sym= _12_a__
 Ene=  0.000000000000000E+000
 Spin= Alpha
 Occup=   1.655840186308880E-002
                     1  0.106656153250274     
                     2 -0.758659432356436     
                     3  0.117304037014278     
                     4  7.127493184219770E-003
                     5  4.589461118589880E-002
                     6 -0.587264016625262     
                     7 -1.222777598202350E-003
                     8 -7.864379932683080E-003
                     9  0.100649933875053     
                    10  2.718799041300821E-002
                    11 -2.808550560526200E-003
                    12  5.052503873478660E-003
                    13 -0.113029522707503     
                    14 -1.103182654801310E-002
                    15  2.735814696455190E-002
                    16 -0.176081145149892     
                    17 -8.135583493338459E-002
                    18 -1.524017456122780E-003
                    19 -9.806895443374710E-003
                    20  0.125432454297353     
                    21  5.578094958911140E-004
                    22  3.523115311113660E-003
                    23 -4.512120052680780E-002
                    24  1.190463165097414E-002
                    25 -5.537954421279310E-004
                    26 -4.652392774845380E-004
                    27 -1.497547964000238E-002
                    28 -1.442269813679220E-003
                    29  0.465456464878754     
                    30  0.139975849382686     
                    31  0.465443191729213     
                    32  0.139973157944468     
                    33  9.514254474438121E-002
                    34  7.152729524280310E-002
                    35  9.513024248401571E-002
                    36  7.152193596474681E-002
 Sym= _13_a__
 Ene=  0.000000000000000E+000
 Spin= Alpha
 Occup=   1.511317545527450E-002
                     1  1.471830520290400E-006
                     2 -1.069064776641820E-005
                     3  6.141457374962190E-006
                     4 -1.891026356963410E-002
                     5  0.381788080699177     
                     6  2.962092087582490E-002
                     7  9.247584868292410E-003
                     8 -0.186697049651172     
                     9 -1.448447039447900E-002
                    10  1.360372777239832E-002
                    11 -5.111146040336470E-003
                    12  0.100644480634582     
                    13  7.976909745420580E-003
                    14 -8.494246026078750E-004
                    15 -5.958711425734050E-006
                    16  3.793227738267370E-005
                    17 -1.477643037929780E-006
                    18  4.625969132029850E-002
                    19 -0.933911472039276     
                    20 -7.243487293865540E-002
                    21 -7.540351339601110E-003
                    22  0.152122528675285     
                    23  1.179353363635820E-002
                    24 -5.541562688417412E-003
                    25  2.082055563821460E-003
                    26 -4.100567799928240E-002
                    27 -3.248166203046280E-003
                    28  3.424669190286440E-004
                    29 -5.727504369815530E-002
                    30 -5.757834798901680E-002
                    31  5.727873795968950E-002
                    32  5.758112529107410E-002
                    33  0.457099168110919     
                    34  0.196691527703688     
                    35 -0.457142440088415     
                    36 -0.196712442809339     
 Sym= _14_a__
 Ene=  0.000000000000000E+000
 Spin= Alpha
 Occup=   1.441246400849170E-002
                     1 -1.803010842926260E-002
                     2  0.162587988682902     
                     3 -0.240650791358417     
                     4 -2.197829718019240E-003
                     5 -1.408832059695930E-002
                     6  0.180427434914477     
                     7 -1.160930497389950E-003
                     8 -7.401017332217780E-003
                     9  9.456662667046779E-002
                    10  3.182473305818982E-002
                    11 -5.614743353328790E-004
                    12 -4.787673717463080E-003
                    13  5.907359588997260E-003
                    14  6.511275603697220E-004
                    15  0.106846768909691     
                    16 -0.760774644398606     
                    17  0.107727557176085     
                    18 -7.886465306714449E-003
                    19 -5.048577830487490E-002
                    20  0.645565592555222     
                    21 -1.308868970384830E-003
                    22 -8.346576467682080E-003
                    23  0.106878919143042     
                    24 -1.902370235486100E-002
                    25 -1.150527377666860E-004
                    26  4.614907060578670E-003
                    27 -2.618011799641720E-002
                    28 -2.606794409291870E-003
                    29 -0.114781463125917     
                    30 -3.298371410067050E-002
                    31 -0.114779425969284     
                    32 -3.298042330967610E-002
                    33  0.523890762983728     
                    34  0.225415522123645     
                    35  0.523856953171371     
                    36  0.225401541722893     
