[Molden Format]
[Atoms] AU
  N     1    7     0.0972132200   -0.2376293800    1.1274469600        
  C     2    6     0.1268252400   -0.0485622000   -1.2915243900        
  H     3    1     0.0040988200    1.3143352800    2.2662795200        
  H     4    1     0.1657498300   -1.9478586600    2.0132356500        
  H     5    1     0.0512493900    1.8042583100   -2.1606211200        
  H     6    1     0.2269902100   -1.7440440500   -2.4357691300        
[5D]
[7F]
[GTO]
  1  0
   s     6 1.00
  0.417351D+04  0.183480D-02
  0.627458D+03  0.139950D-01
  0.142902D+03  0.685870D-01
  0.402343D+02  0.232241D+00
  0.128202D+02  0.469070D+00
  0.439044D+01  0.360455D+00
   s     3 1.00
  0.116264D+02 -0.114961D+00
  0.271628D+01 -0.169118D+00
  0.772218D+00  0.114585D+01
   s     1 1.00
  0.212031D+00  0.100000D+01
   p     3 1.00
  0.116264D+02  0.675800D-01
  0.271628D+01  0.323907D+00
  0.772218D+00  0.740895D+00
   p     1 1.00
  0.212031D+00  0.100000D+01
   d     1 1.00
  0.800000D+00  0.100000D+01
  
  2  0
   s     6 1.00
  0.304752D+04  0.183470D-02
  0.457370D+03  0.140373D-01
  0.103949D+03  0.688426D-01
  0.292102D+02  0.232184D+00
  0.928666D+01  0.467941D+00
  0.316393D+01  0.362312D+00
   s     3 1.00
  0.786827D+01 -0.119332D+00
  0.188129D+01 -0.160854D+00
  0.544249D+00  0.114346D+01
   s     1 1.00
  0.168714D+00  0.100000D+01
   p     3 1.00
  0.786827D+01  0.689991D-01
  0.188129D+01  0.316424D+00
  0.544249D+00  0.744308D+00
   p     1 1.00
  0.168714D+00  0.100000D+01
   d     1 1.00
  0.800000D+00  0.100000D+01
  
  3  0
   s     3 1.00
  0.187311D+02  0.334946D-01
  0.282539D+01  0.234727D+00
  0.640122D+00  0.813757D+00
   s     1 1.00
  0.161278D+00  0.100000D+01
  
  4  0
   s     3 1.00
  0.187311D+02  0.334946D-01
  0.282539D+01  0.234727D+00
  0.640122D+00  0.813757D+00
   s     1 1.00
  0.161278D+00  0.100000D+01
  
  5  0
   s     3 1.00
  0.187311D+02  0.334946D-01
  0.282539D+01  0.234727D+00
  0.640122D+00  0.813757D+00
   s     1 1.00
  0.161278D+00  0.100000D+01
  
  6  0
   s     3 1.00
  0.187311D+02  0.334946D-01
  0.282539D+01  0.234727D+00
  0.640122D+00  0.813757D+00
   s     1 1.00
  0.161278D+00  0.100000D+01
  
[MO]
 Sym= __1_A__
 Ene=   1.00000000000000     
 Spin= Alpha
 Occup=    1.00000000000000     
                     1  0.995953143766872     
                     2  2.394582786498377E-002
                     3 -1.248134076707686E-002
                     4  1.051854198870464E-005
                     5  6.634871347250740E-005
                     6 -8.489880596749400E-004
                     7 -1.868238398367410E-005
                     8 -1.182086394551455E-004
                     9  1.513121315662242E-003
                    10  3.339035352484062E-004
                    11 -7.583731883717040E-006
                    12 -4.341331432094075E-005
                    13 -2.654146822821046E-005
                    14 -1.880199176474639E-006
                    15  9.641763058798482E-005
                    16 -6.758911560736806E-004
                    17  4.730476543178827E-003
                    18  6.236667828696012E-006
                    19  3.974440102811426E-005
                    20 -5.084335489246779E-004
                    21 -2.761914743496409E-005
                    22 -1.765779184354665E-004
                    23  2.258561757113458E-003
                    24 -6.966808775101721E-004
                    25  1.391292073875768E-005
                    26  9.818527829436244E-005
                    27 -4.251474260834770E-005
                    28 -5.679363890674844E-006
                    29 -1.556921524563331E-005
                    30  1.777587889203715E-003
                    31 -1.553187418191866E-005
                    32  1.777622552665069E-003
                    33 -2.205384475124862E-004
                    34 -1.248115679567275E-004
                    35 -2.205515561834505E-004
                    36 -1.248724623425673E-004
 Sym= __2_A__
 Ene=   2.00000000000000     
 Spin= Alpha
 Occup=    1.00000000000000     
                     1 -3.281130725797479E-004
                     2 -1.463854378452274E-004
                     3 -1.870754744292467E-004
                     4 -5.408514139567536E-006
                     5 -3.463566022933752E-005
                     6  4.430916725856627E-004
                     7 -1.088996995125486E-005
                     8 -6.941208037576242E-005
                     9  8.889186700276765E-004
                    10 -6.950206005052415E-004
                    11  1.687323435763622E-005
                    12  8.623207602113746E-005
                    13  1.089377158582753E-004
                    14  9.174431115751599E-006
                    15  0.996084531188535     
                    16  2.405894794738593E-002
                    17 -9.579126973701847E-003
                    18 -1.701547844217864E-005
                    19 -1.086070275746873E-004
                    20  1.389425044166678E-003
                    21 -1.141491675761255E-005
                    22 -7.321216021980969E-005
                    23  9.364544286718741E-004
                    24  8.806707526991481E-004
                    25 -2.630126895281596E-005
                    26 -9.002076859069862E-005
                    27 -3.867563677785898E-004
                    28 -3.601530873415626E-005
                    29 -4.103048538973272E-006
                    30  6.285554862059326E-005
                    31 -4.070066825424220E-006
                    32  6.291258887621206E-005
                    33 -4.052205654696424E-004
                    34  2.577042251960056E-003
                    35 -4.052223216937974E-004
                    36  2.577013807968875E-003
 Sym= __3_A__
 Ene=   3.00000000000000     
 Spin= Alpha
 Occup=    1.00000000000000     
                     1 -0.191716455617924     
                     2  0.403264885279549     
                     3  0.407752955855312     
                     4  1.005935092151986E-003
                     5  6.381491700525822E-003
                     6 -8.165938037020118E-002
                     7  3.422331901897335E-004
                     8  2.157676116501770E-003
                     9 -2.761681370301914E-002
                    10  1.182570676889614E-002
                    11 -5.849363919294114E-004
                    12 -3.009641867469222E-004
                    13 -1.691454632071774E-002
                    14 -1.633803587771520E-003
                    15 -0.110055819564368     
                    16  0.223755226306568     
                    17  6.682812179887639E-002
                    18 -1.835044626820138E-003
                    19 -1.172362620311679E-002
                    20  0.149989561743891     
                    21  1.939835352761907E-004
                    22  1.236454367271073E-003
                    23 -1.581972769055392E-002
                    24  2.423293879750162E-002
                    25 -6.412681616883743E-004
                    26 -2.798289511533244E-003
                    27 -6.488917584702768E-003
                    28 -5.837598634391093E-004
                    29  9.454654168773385E-002
                    30 -1.127359879603655E-002
                    31  9.454768467323658E-002
                    32 -1.127397475126534E-002
                    33  3.745020426218997E-002
                    34 -1.265584252675058E-003
                    35  3.745081356415747E-002
                    36 -1.265293859269226E-003
 Sym= __4_A__
 Ene=   4.00000000000000     
 Spin= Alpha
 Occup=    1.00000000000000     
                     1 -7.869516450043318E-002
                     2  0.166936915184159     
                     3  0.264365985290117     
                     4 -3.533521740676136E-003
                     5 -2.264098665857703E-002
                     6  0.289696002951664     
                     7 -1.540700796786613E-003
                     8 -9.884420985605940E-003
                     9  0.126482109665288     
                    10 -1.255311168436574E-002
                    11 -7.804752584704908E-005
                    12  3.059748257532984E-003
                    13 -1.743014823762842E-002
                    14 -1.737390762508340E-003
                    15  0.161648768470353     
                    16 -0.341658852457334     
                    17 -0.302260988198774     
                    18 -5.200995438024721E-004
                    19 -3.348166595278364E-003
                    20  4.284816598768661E-002
                    21 -3.592533321097486E-004
                    22 -2.297832056266706E-003
                    23  2.939926293521383E-002
                    24 -1.990977696086483E-003
                    25  4.682609130705579E-004
                    26 -1.391263576565074E-003
                    27  2.147971403315202E-002
                    28  2.101918109871486E-003
                    29  0.127393574597191     
                    30  1.119131231042402E-002
                    31  0.127390080656264     
                    32  1.119136844384927E-002
                    33 -0.134295144701957     
                    34 -2.292929090836044E-002
                    35 -0.134294970932716     
                    36 -2.292917987248224E-002
 Sym= __5_A__
 Ene=   5.00000000000000     
 Spin= Alpha
 Occup=    1.00000000000000     
                     1 -3.648383430269534E-007
                     2  1.108147459509400E-006
                     3  8.898281878614353E-007
                     4 -2.373431246812349E-002
                     5  0.478922029591300     
                     6  3.714814131035209E-002
                     7 -1.557116043858836E-002
                     8  0.314195529814601     
                     9  2.437161061507792E-002
                    10  2.677343608925859E-003
                    11 -1.005834200477385E-003
                    12  1.980443286689083E-002
                    13  1.569610576858778E-003
                    14 -1.618582137915228E-004
                    15 -1.985862796774189E-006
                    16  4.614592414462977E-006
                    17  6.898896333162010E-006
                    18 -8.374600027080650E-003
                    19  0.169012926750920     
                    20  1.310154688298071E-002
                    21 -1.021454099461103E-003
                    22  2.060819256264442E-002
                    23  1.596507040047012E-003
                    24  1.689351906668247E-003
                    25 -6.355544418338862E-004
                    26  1.250220547223790E-002
                    27  9.905739505907645E-004
                    28 -1.053215466042673E-004
                    29  0.208055283807683     
                    30  3.654973019058004E-002
                    31 -0.208055363735639     
                    32 -3.655069162928661E-002
                    33  5.689159840162603E-002
                    34  2.272965199662223E-002
                    35 -5.688584968504453E-002
                    36 -2.272851192465062E-002
 Sym= __6_A__
 Ene=   6.00000000000000     
 Spin= Alpha
 Occup=    1.00000000000000     
                     1  1.061791311753965E-002
                     2 -2.598227285974877E-002
                     3 -9.119295598448714E-003
                     4 -4.806956482678216E-003
                     5 -3.082754765354961E-002
                     6  0.394313150895973     
                     7 -2.595722781630168E-003
                     8 -1.666791082650027E-002
                     9  0.213185286148868     
                    10 -1.273132769493395E-002
                    11  2.631617330233178E-005
                    12  2.690547811266692E-003
                    13 -1.235402602228183E-002
                    14 -1.239744473074528E-003
                    15 -4.033241695273045E-002
                    16  7.670834890856576E-002
                    17  0.213716050429257     
                    18  5.184468359848930E-003
                    19  3.309141274579858E-002
                    20 -0.423421480417388     
                    21  1.182484794590860E-003
                    22  7.557175070219471E-003
                    23 -9.669507843343353E-002
                    24 -2.922845178003333E-002
                    25  1.997764550291192E-004
                    26  5.620932069454690E-003
                    27 -2.119268345011676E-002
                    28 -2.141629755066378E-003
                    29  0.104484077990209     
                    30  3.174867519206229E-002
                    31  0.104487945251768     
                    32  3.174999289995233E-002
                    33  0.153229980222011     
                    34  6.840449783656982E-002
                    35  0.153229554220428     
                    36  6.840484979044194E-002
 Sym= __7_A__
 Ene=   7.00000000000000     
 Spin= Alpha
 Occup=    1.00000000000000     
                     1  4.178313141857330E-007
                     2 -9.359767224482411E-007
                     3 -3.502896478089118E-006
                     4 -8.216738122196610E-003
                     5  0.165524049349954     
                     6  1.283813575466635E-002
                     7 -8.394298547199790E-003
                     8  0.169213526614972     
                     9  1.312503720807550E-002
                    10  3.755689225606828E-003
                    11 -1.410803823381465E-003
                    12  2.778565346804580E-002
                    13  2.201991963825202E-003
                    14 -2.317339095736629E-004
                    15 -1.945534618709367E-007
                    16  3.413726661186611E-007
                    17  2.301185162576963E-006
                    18  2.264310538130817E-002
                    19 -0.457289485340010     
                    20 -3.546294211474015E-002
                    21  1.380986592687144E-002
                    22 -0.278858106532384     
                    23 -2.162360620249741E-002
                    24  4.985215659981747E-003
                    25 -1.874609978217073E-003
                    26  3.689413172957998E-002
                    27  2.923026727126228E-003
                    28 -3.095142786956641E-004
                    29  9.823572007009662E-002
                    30  4.550509855025904E-002
                    31 -9.823684949378254E-002
                    32 -4.550608109697804E-002
                    33 -0.241766273767925     
                    34 -9.679653090549208E-002
                    35  0.241768644095933     
                    36  9.679859415997996E-002
 Sym= __8_A__
 Ene=   8.00000000000000     
 Spin= Alpha
 Occup=    1.00000000000000     
                     1  5.959877511970261E-006
                     2 -1.568971322318015E-005
                     3 -1.996503779639724E-005
                     4  0.575756757487443     
                     5  2.782408796336905E-002
                     6  9.199061965770489E-003
                     7  0.451953706772174     
                     8  2.184216660064883E-002
                     9  7.223261498153533E-003
                    10 -5.117317687223626E-004
                    11 -1.842324767355712E-002
                    12 -8.660565483796548E-004
                    13  1.580786261364619E-004
                    14  1.451048231224156E-003
                    15 -1.873135993678289E-006
                    16  4.407259808450503E-006
                    17 -1.473419435602558E-006
                    18  0.201100907800720     
                    19  9.699185314513968E-003
                    20  3.232182384294372E-003
                    21  6.240653736065923E-002
                    22  3.004882515230705E-003
                    23  1.001816661125803E-003
                    24  9.503643963734682E-004
                    25  3.421335589826536E-002
                    26  1.611407147195783E-003
                    27 -2.894934775815570E-004
                    28 -2.695010193719743E-003
                    29  7.724743240987258E-006
                    30  2.745882685528477E-006
                    31 -4.914991954690985E-007
                    32 -6.067175411943303E-007
                    33 -1.000653340380427E-005
                    34 -5.233927779315826E-006
                    35  4.366494220766422E-006
                    36  2.812010358557031E-006
 Sym= __9_A__
 Ene=   9.00000000000000     
 Spin= Alpha
 Occup=    1.00000000000000     
                     1 -2.635658973666749E-006
                     2  6.447004137137604E-006
                     3  1.832846568360372E-005
                     4 -0.264958461653133     
                     5 -1.279912402511419E-002
                     6 -4.235238550756066E-003
                     7 -0.412325645460979     
                     8 -1.991756089599347E-002
                     9 -6.595307625718480E-003
                    10 -5.820062520269500E-004
                    11 -2.099423992275373E-002
                    12 -9.867294203012541E-004
                    13  1.770265256068373E-004
                    14  1.653612197090208E-003
                    15 -1.251166126996417E-006
                    16  6.255870065007656E-007
                    17  1.298179572274844E-005
                    18  0.593798748809371     
                    19  2.867240987236845E-002
                    20  9.499501159632913E-003
                    21  0.606347988914257     
                    22  2.927614447250736E-002
                    23  9.704075973850635E-003
                    24 -5.863253747572833E-004
                    25 -2.113084272043178E-002
                    26 -9.948598881923552E-004
                    27  1.790827400272508E-004
                    28  1.664231525702573E-003
                    29 -3.846005367815315E-006
                    30 -3.057377036562597E-006
                    31 -9.794354551586395E-006
                    32 -1.056771093154153E-005
                    33 -1.583729186922818E-006
                    34  7.834340547439403E-007
                    35 -4.504418132535726E-006
                    36 -8.197690566229015E-006
 Sym= _10_A__
 Ene=   10.0000000000000     
 Spin= Alpha
 Occup=    1.00000000000000     
                     1 -9.943076561745971E-002
                     2  0.146980260610445     
                     3   1.60419143039966     
                     4 -1.604226201604145E-003
                     5 -1.037316755962406E-002
                     6  0.132609195820220     
                     7 -4.299267288423319E-003
                     8 -2.784748719823524E-002
                     9  0.356028692933833     
                    10  7.194965742406702E-003
                    11 -8.562901279259538E-005
                    12 -1.235887860926077E-003
                    13  3.319101491905704E-003
                    14  3.409822868087511E-004
                    15 -3.154993262328003E-002
                    16  6.822752277108962E-002
                    17  0.567076667834945     
                    18  1.633434422707365E-003
                    19  1.043601877183464E-002
                    20 -0.133647569516604     
                    21  7.113637529986150E-003
                    22  4.556056055587843E-002
                    23 -0.583313634254612     
                    24  9.395759890501305E-003
                    25 -4.221377622156608E-005
                    26 -1.886614563544883E-003
                    27  7.831839344327955E-003
                    28  7.885909816124955E-004
                    29 -7.171935650106365E-002
                    30  -1.00132841117446     
                    31 -7.172500924589852E-002
                    32  -1.00138396620133     
                    33 -1.465162046325593E-002
                    34 -0.564234602985525     
                    35 -1.465579975149914E-002
                    36 -0.564293013830226     
 Sym= _11_A__
 Ene=   11.0000000000000     
 Spin= Alpha
 Occup=    1.00000000000000     
                     1  5.572345096981720E-006
                     2 -8.648594104830841E-006
                     3 -8.665509989302079E-005
                     4  1.281305339047616E-002
                     5 -0.258527723215966     
                     6 -2.005835809557895E-002
                     7  3.358645062760363E-002
                     8 -0.677619379702712     
                     9 -5.257259950838244E-002
                    10  4.575449588999815E-003
                    11 -1.719495117009023E-003
                    12  3.385020290406746E-002
                    13  2.682774132104060E-003
                    14 -2.847886179632945E-004
                    15 -3.808362809196772E-006
                    16  5.479924154845645E-006
                    17  4.769823990098685E-005
                    18  1.194954519096035E-002
                    19 -0.241294821279747     
                    20 -1.870963905766502E-002
                    21  3.242430771523337E-002
                    22 -0.654858557973034     
                    23 -5.077540088170632E-002
                    24 -4.075962533159319E-003
                    25  1.532273332377388E-003
                    26 -3.015936483792822E-002
                    27 -2.390129885925276E-003
                    28  2.545519839861344E-004
                    29  9.247299360465187E-002
                    30   1.07497556210479     
                    31 -9.246510624315214E-002
                    32  -1.07487265556123     
                    33  5.982765260356709E-002
                    34  0.883053521568472     
                    35 -5.983138042556088E-002
                    36 -0.883105816804690     
 Sym= _12_A__
 Ene=   12.0000000000000     
 Spin= Alpha
 Occup=    1.00000000000000     
                     1 -6.214759131138230E-002
                     2  9.982862422353767E-002
                     3  0.903323669890401     
                     4 -1.947234955002818E-004
                     5 -1.310081575332744E-003
                     6  1.666663413585003E-002
                     7  6.876008861836342E-004
                     8  4.255792053967174E-003
                     9 -5.465221299990390E-002
                    10 -6.473584620414701E-003
                    11 -3.048841705921044E-005
                    12  1.533935760636068E-003
                    13 -8.402773609663990E-003
                    14 -8.378454116696412E-004
                    15  0.124577840362058     
                    16 -0.184754604704266     
                    17  -2.04328232753385     
                    18 -1.443954199053395E-003
                    19 -9.271787116405647E-003
                    20  0.118490497943360     
                    21 -4.489082608343746E-003
                    22 -2.880355923838778E-002
                    23  0.368084798778446     
                    24  3.773660777735919E-003
                    25 -1.693751044643871E-004
                    26 -1.630990496874631E-004
                    27 -4.547038586129494E-003
                    28 -4.374894088021189E-004
                    29 -3.674124742412256E-002
                    30 -0.499375509779068     
                    31 -3.674716846457188E-002
                    32 -0.499441446002973     
                    33  7.086759317795913E-002
                    34   1.31584854614809     
                    35  7.086273342354027E-002
                    36   1.31575439830892     
 Sym= _13_A__
 Ene=   13.0000000000000     
 Spin= Alpha
 Occup=    1.00000000000000     
                     1 -7.673069962010615E-007
                     2 -4.335177997940981E-007
                     3  2.912099723225147E-005
                     4  1.179723506463909E-002
                     5 -0.238098309418961     
                     6 -1.846355856439834E-002
                     7  5.459833106402127E-002
                     8  -1.10202114384635     
                     9 -8.547724072808489E-002
                    10 -2.961860251801139E-003
                    11  1.112901290093773E-003
                    12 -2.191714193658689E-002
                    13 -1.737197638937092E-003
                    14  1.837480394650989E-004
                    15  5.892503768481301E-007
                    16  3.990682302201052E-008
                    17 -3.051585848071866E-005
                    18 -1.461810693899895E-002
                    19  0.295193436339204     
                    20  2.289455515865125E-002
                    21 -8.141785216211282E-002
                    22   1.64377887910440     
                    23  0.127466894959335     
                    24  1.962995175859224E-004
                    25 -7.355569351525049E-005
                    26  1.455729163172661E-003
                    27  1.152277980960129E-004
                    28 -1.082560106669916E-005
                    29 -9.308116642380255E-003
                    30   1.08490228946227     
                    31  9.306089995247398E-003
                    32  -1.08492581254347     
                    33 -1.858781001693034E-002
                    34  -1.62596315393228     
                    35  1.858974320937969E-002
                    36   1.62599305821696     
 Sym= _14_A__
 Ene=   14.0000000000000     
 Spin= Alpha
 Occup=    1.00000000000000     
                     1 -5.271548235888320E-002
                     2  3.217717825539358E-002
                     3   2.03067271837034     
                     4  3.719424051020687E-003
                     5  2.382690874589124E-002
                     6 -0.304811078021401     
                     7  2.201342015482564E-002
                     8  0.140729964124354     
                     9  -1.80054781328321     
                    10  2.119587201917334E-002
                    11 -7.136197873823946E-004
                    12 -1.852347484818895E-003
                    13 -1.336845909111346E-002
                    14 -1.265739081842593E-003
                    15  6.119199077763055E-002
                    16  3.617680363773741E-002
                    17  -2.34887529533091     
                    18  8.493399571050027E-004
                    19  5.462988100969872E-003
                    20 -6.986802400869195E-002
                    21  3.138479326220823E-002
                    22  0.200368730571528     
                    23  -2.56341921540729     
                    24  2.912875183689074E-002
                    25 -2.802797664315217E-004
                    26 -5.284718391485880E-003
                    27  1.701929843025442E-002
                    28  1.731835287935496E-003
                    29  4.075217358603381E-002
                    30  0.682473560743497     
                    31  4.075391996644780E-002
                    32  0.682464397270879     
                    33 -5.180311031607106E-002
                    34 -0.277733073687292     
                    35 -5.180868801761171E-002
                    36 -0.277687236701299     
 Sym= _15_A__
 Ene=   15.0000000000000     
 Spin= Alpha
 Occup=    1.00000000000000     
                     1 -1.723199661247026E-005
                     2  2.234045550941339E-005
                     3  1.020958362872288E-004
                     4 -0.215483749400397     
                     5 -1.041768344448274E-002
                     6 -3.406696798697832E-003
                     7 -3.353133071717479E-003
                     8 -1.216185574305069E-004
                     9 -5.132051405419870E-004
                    10  2.196371751296022E-003
                    11  8.092341589080405E-002
                    12  3.813409733033290E-003
                    13 -6.966144194271808E-004
                    14 -6.375257859822760E-003
                    15  8.446190951767070E-006
                    16 -1.524239257476684E-004
                    17 -2.446783463344932E-004
                    18 -0.993770428011452     
                    19 -4.797173517580180E-002
                    20 -1.619369551283913E-002
                    21   1.12969621618686     
                    22  5.456061550093585E-002
                    23  1.819815562845433E-002
                    24 -1.240120960144282E-003
                    25 -4.469769160547866E-002
                    26 -2.100866187070186E-003
                    27  3.710678234276550E-004
                    28  3.519965108712653E-003
                    29  2.946654097005021E-005
                    30  6.281293823875768E-005
                    31  4.140246514032085E-005
                    32  4.487130591661365E-005
                    33  2.029144966816002E-005
                    34 -2.483242797599283E-006
                    35  3.303048453163505E-005
                    36  7.973386033861583E-006
 Sym= _16_A__
 Ene=   16.0000000000000     
 Spin= Alpha
 Occup=    1.00000000000000     
                     1 -5.103199237668631E-002
                     2  4.727053182468970E-002
                     3  0.315391151486692     
                     4 -9.958060426035794E-004
                     5 -6.788851210367541E-003
                     6  8.663793074355340E-002
                     7  1.743029227808648E-002
                     8  0.111407394971181     
                     9  -1.42497859017384     
                    10 -0.158843309971641     
                    11  2.620686029998674E-003
                    12  2.439988219241351E-002
                    13 -3.601737037813008E-002
                    14 -3.875560747459975E-003
                    15  2.655405819218755E-002
                    16 -0.461756308939033     
                    17 -0.755384695221064     
                    18  1.121442218187488E-002
                    19  6.939608298047686E-002
                    20 -0.889270136411004     